/*--------------------------------*- C++ -*----------------------------------*\
  =========                 |
  \\      /  F ield         | OpenFOAM: The Open Source CFD Toolbox
   \\    /   O peration     | Website:  https://openfoam.org
    \\  /    A nd           | Version:  7
     \\/     M anipulation  |
\*---------------------------------------------------------------------------*/
FoamFile
{
    version     2.0;
    format      ascii;
    class       volScalarField;
    location    "1";
    object      p;
}
// * * * * * * * * * * * * * * * * * * * * * * * * * * * * * * * * * * * * * //

dimensions      [0 2 -2 0 0 0 0];

internalField   nonuniform List<scalar> 
1161
(
0.0339935
-0.538141
-1.38839
-2.38693
-3.60308
-5.14555
-7.1387
-9.70516
-12.9203
-16.7484
-21.1364
-25.7417
-29.8416
-33.1133
-35.6254
-37.6477
-39.4921
-41.5055
-44.5566
-52.7483
-0.0565603
-0.724983
-1.65037
-2.71019
-3.99853
-5.63242
-7.73247
-10.4137
-13.7389
-17.6412
-22.081
-26.5349
-30.2531
-33.0398
-35.188
-37.0253
-38.7703
-40.577
-42.4625
-44.424
-0.0855217
-0.744807
-1.64624
-2.67685
-3.95184
-5.61475
-7.81833
-10.7155
-14.4044
-18.8667
-24.0744
-28.9637
-32.2123
-34.0112
-35.2533
-36.3939
-37.5131
-38.5597
-39.3292
-39.2523
-0.0940263
-0.661515
-1.44376
-2.36891
-3.57138
-5.22918
-7.54013
-10.7064
-14.9416
-20.547
-27.6611
-33.4674
-35.7236
-35.858
-35.7751
-35.9375
-36.3151
-36.7912
-37.1524
-36.8953
-0.0905721
-0.50218
-1.08114
-1.83066
-2.90545
-4.51676
-6.8778
-10.1144
-14.3255
-20.2465
-28.3843
-37.6523
-39.8886
-37.9343
-36.6238
-35.8566
-35.5919
-35.757
-36.1972
-36.7391
-0.0737169
-0.280617
-0.589726
-1.09477
-1.9719
-3.46453
-5.77518
-8.83479
-11.6261
-16.2315
-22.8079
-43.3683
-39.394
-37.191
-35.8788
-35.2237
-35.1868
-35.7322
-37.3015
-0.0465139
-0.0165103
-0.00904215
-0.199533
-0.77107
-1.98083
-4.09306
-6.84988
-9.52955
-11.966
-42.1329
-38.9747
-37.2266
-35.9083
-35.0945
-34.8935
-35.4097
-37.6513
-0.0157764
0.268618
0.621534
0.810948
0.683674
0.0456731
-2.1273
-4.51922
-7.43374
-40.039
-38.5309
-37.2685
-36.0749
-35.213
-34.8733
-35.2712
-37.5573
0.0172958
0.554773
1.26427
1.88016
2.2606
2.14893
0.981512
-1.9656
-39.499
-38.7429
-37.5791
-36.4275
-35.5081
-35.001
-35.1765
-36.8624
0.0531769
0.813654
1.85922
2.91797
4.01282
4.22373
3.84123
-40.5684
-39.421
-38.0566
-36.7982
-35.7084
-34.8905
-34.6071
-35.1954
0.0841564
0.983996
2.27649
3.67617
5.30722
6.5407
6.89566
-41.4445
-39.8435
-38.3336
-36.8472
-35.4098
-34.0438
-32.9746
-32.146
0.0753898
0.924389
2.24694
3.77601
5.70561
8.07015
10.1405
-46.481
-43.8143
-41.7305
-39.8911
-38.1128
-36.2635
-34.2966
-32.152
-30.0359
-27.6068
-0.0421146
0.371216
1.08128
1.64284
1.92241
4.22352
-56.61
-50.7504
-46.3931
-43.7206
-41.4645
-39.3725
-37.2555
-34.9571
-32.3735
-29.3674
-26.14
-22.1512
-0.279734
-0.648405
-1.16439
-2.8372
-7.4175
-15.7735
-50.786
-61.1256
-52.354
-48.0834
-45.0967
-42.6214
-40.3729
-38.149
-35.8045
-33.1775
-30.1301
-26.4621
-22.3621
-17.159
-0.583339
-1.83065
-3.64946
-7.01274
-13.3465
-23.8516
-38.3807
-46.4528
-46.3695
-44.0473
-41.9703
-40.1682
-38.3408
-36.3554
-34.1381
-31.5577
-28.4729
-24.6442
-20.2179
-14.4422
-0.847876
-2.79178
-5.45311
-9.21731
-14.4975
-21.4876
-30.654
-37.3093
-39.4248
-39.0802
-38.2149
-37.2586
-36.0992
-34.6679
-32.9431
-30.8397
-28.2347
-24.8804
-20.8496
-15.3582
-1.01705
-3.38312
-6.44374
-10.147
-14.6121
-19.8328
-25.8796
-30.9219
-33.6707
-34.67
-34.8971
-34.7698
-34.3335
-33.5924
-32.5683
-31.2334
-29.5075
-27.1823
-24.3018
-20.0465
-1.09313
-3.68139
-6.88694
-10.4532
-14.3782
-18.5887
-23.0022
-26.9799
-29.8584
-31.634
-32.6608
-33.2034
-33.373
-33.2387
-32.8711
-32.3136
-31.5743
-30.5757
-29.2464
-27.0568
-1.09743
-3.78037
-6.98501
-10.418
-14.0378
-17.7785
-21.5387
-25.0775
-28.0211
-30.2243
-31.7443
-32.7125
-33.2504
-33.4663
-33.4675
-33.3586
-33.2529
-33.2437
-33.5483
-34.5216
-1.02327
-3.6772
-6.79286
-10.1405
-13.6848
-17.3709
-21.1283
-24.7213
-27.8731
-30.3698
-32.1608
-33.3182
-33.9603
-34.2114
-34.1952
-34.039
-33.8918
-33.9906
-35.2173
-42.1471
-34.2878
-26.2402
-43.1962
-28.3858
-34.2997
-26.2395
-43.3114
-39.3726
-45.7139
-45.2266
-37.6624
-39.3798
-45.7286
-45.2345
-18.161
-12.4814
-16.2241
-18.1477
-12.4737
-40.7212
-22.7846
-40.977
-46.2113
-46.4258
-46.2135
-46.4171
-41.4706
-43.4235
-42.2815
-43.37
-41.4714
-43.4242
-42.2824
-10.5926
-6.51022
-9.52879
-10.5955
-6.50472
-11.9633
-43.9491
-43.9398
-40.8932
-40.7391
-40.6303
-42.1318
-40.8936
-40.7398
-40.6308
-7.28788
-1.33862
-4.5189
-7.28653
-1.33958
-7.43195
-39.6885
-39.4252
-39.5151
-40.0412
-39.6892
-39.4241
-39.5155
-1.52084
2.58848
3.51465
0.980673
-1.52412
2.58893
3.53068
-1.96703
-39.6013
-40.1895
-39.7084
-39.4983
-39.6016
-40.1893
-39.7085
6.03748
3.84069
6.02959
-42.1747
-42.1748
-40.5678
-40.6996
-40.4221
-40.5692
-40.568
-40.6998
-40.4224
7.00201
7.03375
7.93017
6.54202
7.00416
7.03577
7.93296
9.32461
6.88348
9.32625
-44.8763
-44.6363
-44.8731
-44.6374
-43.5558
-43.1761
-42.7681
-43.5557
-43.1763
-42.7683
9.43598
6.8179
11.837
8.0726
9.43935
6.82074
11.8394
10.1371
-51.7049
-51.7066
-49.0016
-50.2027
-48.4578
-49.0016
-50.2034
-48.4583
-46.1961
-46.1119
-45.2861
-46.4807
-46.1963
-46.112
-45.2863
11.9009
-4.50839
-20.6486
4.22815
11.9071
-4.5074
-20.7234
-71.5941
-71.5949
-57.0526
-66.7724
-59.9876
-57.0532
-66.7803
-59.9894
-52.9848
-54.9722
-52.8846
-56.6097
-52.9851
-54.9728
-52.8851
-62.4006
-44.9456
-53.0273
-50.8179
-62.3969
-44.9435
-53.0266
-22.0524
-22.8312
-26.8057
-18.6221
-26.9378
-18.5417
-21.9706
-49.6078
-49.5996
-8.02253
-5.42549
-6.71067
-6.84943
-8.02178
-5.42489
-6.70918
-11.9822
-15.4561
-8.07259
-15.4944
-8.04254
-41.8202
-42.1186
-41.8003
-41.9792
-41.7983
-41.9847
-41.8092
-3.20233
-0.574436
-1.67327
-2.12758
-3.20252
-0.574987
-1.67403
-7.45469
-39.7721
-40.0381
-40.0009
-39.6926
-39.9993
-39.6937
-39.7686
-2.00204
1.55091
1.58334
-39.661
-39.4989
-39.579
-39.6325
-39.5807
-39.6323
-39.6606
4.29158
5.35001
5.61354
4.22356
4.29123
5.35013
5.61294
5.16661
3.83402
3.07736
5.07832
3.04215
5.09216
5.1514
-40.6296
-40.5723
-40.6034
-40.6588
-40.6092
-40.6553
-40.6279
8.61946
6.88606
6.699
8.45686
6.67231
8.48304
8.59054
-43.1875
-43.9801
-43.1807
-43.9826
-43.172
-43.1989
10.1389
10.9809
10.976
-49.4707
-49.7461
-49.7284
-49.4705
-62.5485
-62.5759
-54.4352
-56.6104
-55.4202
-55.7607
-55.4307
-55.7422
-54.4692
-50.0365
-50.2166
-48.5729
-50.7509
-50.037
-50.2169
-48.5732
-33.8334
-21.4151
-31.995
-15.7746
-33.8372
-21.4158
-31.9953
-58.1988
-50.5813
-78.1907
-51.1343
-78.6463
-51.1066
-58.2431
-59.7561
-55.1503
-54.3297
-61.128
-59.7574
-55.1514
-54.3303
-33.0579
-43.3363
-39.4074
-30.1768
-39.429
-30.0368
-33.1193
-33.0688
-43.3856
-39.4545
-30.19
-39.4499
-30.0515
-33.1423
-41.7138
-45.7503
-40.7712
-45.0039
-40.7397
-44.9659
-41.7423
-41.7213
-45.7592
-40.7933
-45.0192
-40.7479
-44.9722
-41.7612
-15.0603
-14.6771
-10.5711
-14.6097
-10.5585
-15.0144
-15.0511
-14.6266
-10.5636
-14.594
-10.5577
-14.99
-40.918
-27.0589
-26.9417
-17.9173
-17.853
-22.1285
-22.8089
-26.8401
-18.5785
-26.951
-18.5131
-22.1147
-41.0281
-27.0482
-26.9307
-17.7523
-17.7636
-50.4546
-46.1671
-48.0387
-48.2313
-48.0081
-48.2453
-50.453
-46.4389
-46.4519
-46.4353
-49.6033
-49.596
-50.4544
-46.1692
-48.0406
-48.2307
-48.0089
-48.2465
-50.4519
-46.4394
-46.45
-46.4369
-8.6628
-6.49934
-8.16327
-6.05406
-8.19169
-6.01615
-8.63783
-9.5535
-12.1883
-8.45351
-12.2334
-8.45145
-9.54765
-8.6601
-6.49677
-8.16027
-6.04167
-8.19023
-6.00992
-8.63248
-9.55081
-12.2245
-8.41919
-12.2512
-8.43334
-9.54296
-11.9799
-15.4526
-8.0701
-15.491
-8.04103
-43.9413
-43.9404
-41.1396
-40.7414
-41.3794
-40.712
-41.3789
-40.7161
-41.1431
-41.8202
-42.1185
-41.7998
-41.9798
-41.798
-41.9849
-41.8097
-41.1397
-40.7415
-41.3801
-40.7126
-41.3791
-40.7163
-41.1436
-4.50997
-7.32169
-6.01556
-5.93362
-6.02579
-5.93352
-4.53537
-4.25555
-1.301
-2.84903
-2.53669
-2.8507
-2.53411
-4.22661
-4.52782
-4.52386
-4.50967
-7.32101
-6.01456
-5.93278
-6.02521
-5.93318
-4.53472
-4.25547
-1.30115
-2.84963
-2.53709
-2.85079
-2.53403
-4.22698
-4.52754
-4.52361
-7.45395
-39.5887
-39.4242
-39.4942
-39.5053
-39.4945
-39.5058
-39.586
-39.7715
-40.0385
-40.002
-39.694
-39.9992
-39.6939
-39.7695
-39.5876
-39.4241
-39.4948
-39.5045
-39.4946
-39.5049
-39.5862
1.27139
-1.56936
-0.251629
1.01118
-0.263893
1.02592
1.2545
1.68892
3.54462
0.528227
3.72721
0.480203
3.76706
1.70487
1.27011
-1.57005
-0.253928
1.0023
-0.264484
1.02347
1.25022
1.68686
3.54857
0.510485
3.73664
0.475208
3.77027
1.69938
-2.00204
1.54639
1.5823
-39.8705
-40.1887
-39.8896
-39.9968
-39.8905
-39.9931
-39.8684
-39.6606
-39.4991
-39.5787
-39.6325
-39.5805
-39.6323
-39.6606
-39.8706
-40.1889
-39.8896
-39.9972
-39.8906
-39.9934
-39.8685
5.31243
3.19038
3.17018
5.29087
5.11319
6.03732
5.47611
5.7582
5.47447
5.74552
5.12677
5.16681
3.83398
3.07703
5.07699
3.04195
5.09181
5.15132
5.31399
3.19111
3.16972
5.29377
5.1121
6.034
5.47231
5.74376
5.47301
5.73937
5.12354
-41.4233
-41.4271
-42.1735
-42.1443
-42.3708
-42.1592
-42.3622
-41.424
-41.4272
-42.1737
-42.1447
-42.3707
-42.1594
-42.3623
-40.6294
-40.5725
-40.6038
-40.6588
-40.6095
-40.655
-40.6281
9.32897
8.69693
8.703
8.63784
6.8799
6.66112
8.47654
6.65265
8.49265
8.62725
9.32978
8.7078
8.70811
-43.9535
-43.9513
-45.4733
-44.8603
-45.4834
-45.4793
-45.476
-45.349
-44.6216
-44.8795
-45.0542
-44.8925
-45.0348
-45.3457
-43.9547
-43.9517
-45.472
-44.859
-45.482
-45.4787
-45.4733
-45.352
-44.6222
-44.8824
-45.0553
-44.8938
-45.0355
-45.3519
-43.1875
-43.9802
-43.1809
-43.9825
-43.172
-43.1991
9.51061
9.42647
9.14491
10.2993
9.14403
10.2826
9.52221
9.57738
11.8246
11.3127
8.9443
11.3101
8.89104
9.59281
9.51216
9.42846
9.14924
10.3015
9.14684
10.2833
9.52533
9.5785
11.8246
11.3136
8.94859
11.31
8.89213
9.59585
10.1371
10.9872
10.9787
-53.822
-53.8112
-51.6978
-51.709
-51.7638
-51.9512
-51.7813
-51.9274
-51.7107
-53.8203
-53.8104
-51.6953
-51.7102
-51.7721
-51.9476
-51.7856
-51.9261
-51.7049
-47.8807
-49.0348
-48.0982
-47.8019
-48.0879
-47.797
-47.9054
-50.5356
-50.174
-50.5019
-49.5992
-50.4939
-49.5775
-50.505
-49.4709
-49.7468
-49.7288
-49.4712
-47.8809
-49.0348
-48.0986
-47.8021
-48.0881
-47.7971
-47.9058
-50.5361
-50.1746
-50.5043
-49.5999
-50.4951
-49.5778
-50.506
3.67426
11.903
8.40181
7.86045
8.38027
7.8719
3.7473
-2.49867
-20.9185
-1.24314
-14.1962
-1.18979
-14.2817
-2.50046
3.67948
11.9025
8.41024
7.88919
8.38246
7.87448
3.76633
-2.49177
-20.9346
-1.20909
-14.217
-1.18455
-14.2883
-2.48081
-71.6386
-71.1662
-74.4275
-71.1441
-74.4638
-71.6407
-71.172
-74.4239
-71.1524
-74.4594
-60.3084
-57.0509
-57.8359
-57.8251
-60.3154
-65.6575
-66.7631
-68.9894
-63.384
-68.9925
-63.3306
-65.6442
-62.5491
-62.5805
-60.3086
-57.0513
-57.8372
-57.8257
-60.3169
-65.6598
-66.7648
-69.0068
-63.3895
-68.9956
-63.3317
-65.6543
-54.4351
-56.6103
-55.4199
-55.7606
-55.4306
-55.7422
-54.4692
-58.1879
-50.5914
-78.1406
-51.1332
-78.6285
-51.1044
-58.2232
)
;

boundaryField
{
    fixedWalls
    {
        type            zeroGradient;
    }
    frontAndBack
    {
        type            empty;
    }
    right
    {
        type            fixedValue;
        value           uniform 0;
    }
    left
    {
        type            zeroGradient;
    }
    model
    {
        type            zeroGradient;
    }
}


// ************************************************************************* //
