/*--------------------------------*- C++ -*----------------------------------*\
  =========                 |
  \\      /  F ield         | OpenFOAM: The Open Source CFD Toolbox
   \\    /   O peration     | Website:  https://openfoam.org
    \\  /    A nd           | Version:  7
     \\/     M anipulation  |
\*---------------------------------------------------------------------------*/
FoamFile
{
    version     2.0;
    format      ascii;
    class       surfaceScalarField;
    location    "1";
    object      phi;
}
// * * * * * * * * * * * * * * * * * * * * * * * * * * * * * * * * * * * * * //

dimensions      [0 3 -1 0 0 0 0];

internalField   nonuniform List<scalar> 
2879
(
3.2949e-05
-4.19743e-06
3.70269e-05
-4.0779e-06
4.15563e-05
-4.5294e-06
4.72711e-05
-5.71475e-06
5.47406e-05
-7.4695e-06
6.42572e-05
-9.51661e-06
7.57059e-05
-1.14487e-05
8.84394e-05
-1.27335e-05
0.000101311
-1.28717e-05
0.000113131
-1.18195e-05
0.000120444
-7.31352e-06
0.00011951
9.33989e-07
0.000112191
7.31912e-06
0.00010235
9.84154e-06
9.3518e-05
8.83152e-06
8.79824e-05
5.53562e-06
8.76653e-05
3.17106e-07
9.58766e-05
-8.21137e-06
0.000122181
-2.63041e-05
-7.76909e-05
8.35879e-05
-1.00171e-05
9.03328e-05
-1.08228e-05
9.8845e-05
-1.30416e-05
0.000109937
-1.68072e-05
0.000124353
-2.18848e-05
0.000142527
-2.76907e-05
0.000164279
-3.32013e-05
0.000188575
-3.70294e-05
0.00021373
-3.80269e-05
0.000238506
-3.65947e-05
0.000256423
-2.52312e-05
0.00026072
-3.36266e-06
0.000252703
1.53364e-05
0.000238353
2.41907e-05
0.000222913
2.42719e-05
0.000210045
1.84034e-05
0.000202311
8.05096e-06
0.000201198
-7.09793e-06
0.00020548
-3.05862e-05
-7.20616e-05
0.000116719
-1.55533e-05
0.000123461
-1.75654e-05
0.000132523
-2.21029e-05
0.000144825
-2.91098e-05
0.000161172
-3.82313e-05
0.000182088
-4.86072e-05
0.000207303
-5.84158e-05
0.000235522
-6.52483e-05
0.000265245
-6.77503e-05
0.000295753
-6.7102e-05
0.000318832
-4.83105e-05
0.000323082
-7.61316e-06
0.000313004
2.54147e-05
0.000297697
3.94974e-05
0.00028116
4.08097e-05
0.00026578
3.37835e-05
0.000252914
2.09162e-05
0.000242048
3.76859e-06
0.000229067
-1.76052e-05
-4.28044e-05
0.000133432
-1.99651e-05
0.000138947
-2.30807e-05
0.000146808
-2.99638e-05
0.000158068
-4.03695e-05
0.000173648
-5.38113e-05
0.000194034
-6.89928e-05
0.000218352
-8.27346e-05
0.000244628
-9.1524e-05
0.00027244
-9.55619e-05
0.000301229
-9.5891e-05
0.000321105
-2.00257e-05
-1.40748e-05
-2.00229e-05
-1.40635e-05
0.000313509
-3.44147e-06
3.42217e-06
-3.42791e-06
3.42996e-06
0.000294312
4.46117e-05
0.000279406
5.44034e-05
0.000266487
5.37285e-05
0.000255265
4.50061e-05
0.000245382
3.07983e-05
0.000235775
1.33758e-05
0.000223399
-5.22907e-06
-1.91572e-05
0.000137062
-2.26814e-05
0.000140733
-2.67517e-05
0.000146509
-3.57405e-05
0.000155508
-4.93683e-05
0.000168674
-6.69771e-05
0.000186051
-8.63697e-05
0.000204706
-0.000101389
0.000219507
-0.000106325
0.000231474
-0.000107529
6.04245e-05
-2.36591e-05
4.94705e-05
6.04207e-05
4.94431e-05
-1.84263e-05
-2.36661e-05
-1.84248e-05
6.30748e-05
-2.26761e-05
1.18042e-10
-6.24029e-05
5.97182e-05
8.71882e-10
4.64719e-07
-8.45034e-07
-8.39711e-07
4.62375e-07
0.000184118
1.02528e-05
-5.39196e-05
-3.63577e-05
-5.39116e-05
-3.63481e-05
1.0262e-05
1.02535e-05
1.0263e-05
0.000187018
5.1503e-05
0.000191072
4.96744e-05
0.000194295
4.17835e-05
0.000196732
2.8361e-05
0.000198888
1.12194e-05
0.000200502
-6.84249e-06
-1.83594e-05
0.000132188
-2.33485e-05
0.000133604
-2.81669e-05
0.000136677
-3.88138e-05
0.000142402
-5.5093e-05
0.000151511
-7.60867e-05
0.000163048
-9.79065e-05
0.000171168
-0.000109509
0.000159841
-2.54074e-05
-2.2091e-05
-2.54083e-05
-2.20917e-05
3.56521e-05
-1.83649e-05
2.40103e-05
3.56428e-05
2.40006e-05
-1.51334e-05
-1.83655e-05
-1.51297e-05
3.15913e-05
-1.95976e-05
-6.8203e-10
3.94821e-06
-6.58226e-06
4.8186e-10
5.70752e-06
-3.07396e-06
-3.08562e-06
1.4587e-05
5.22029e-06
1.12676e-10
-3.08721e-06
-1.69239e-06
-1.68943e-06
8.46997e-05
2.35748e-05
-1.74744e-05
-1.09111e-05
-1.74744e-05
-1.09116e-05
0.000105374
2.90003e-05
0.000122287
2.48703e-05
0.000137837
1.2811e-05
0.000154093
-5.03695e-06
0.000173331
-2.60806e-05
-4.46961e-05
0.000123764
-2.17599e-05
0.000122587
-2.69901e-05
0.000122279
-3.85058e-05
0.000123404
-5.62178e-05
0.00012617
-7.88528e-05
0.000128686
-0.000100423
3.13474e-05
-2.50883e-05
2.60349e-05
3.13472e-05
2.60338e-05
-2.27056e-05
-2.50877e-05
-2.27048e-05
2.87167e-05
-2.27767e-05
-3.98425e-11
1.71137e-05
-5.72085e-11
-2.47759e-05
-2.341e-06
-3.01135e-06
-3.01136e-06
-2.33897e-06
2.10252e-06
-2.25515e-06
3.51669e-10
1.73765e-06
-1.58537e-06
-1.95443e-07
4.93896e-08
-2.58472e-10
1.80126e-07
-3.38145e-08
2.74684e-05
5.11839e-06
-2.90474e-06
-1.60139e-06
-2.90459e-06
-1.60126e-06
4.82306e-05
8.23812e-06
7.02823e-05
2.8187e-06
9.40385e-05
-1.09452e-05
0.000120974
-3.19727e-05
0.000153673
-5.87797e-05
-9.06787e-05
0.000116482
-1.79436e-05
0.000112468
-2.29758e-05
0.000108057
-3.40948e-05
0.000103098
-5.12586e-05
9.66681e-05
-7.24233e-05
2.31486e-05
-8.82382e-05
1.90926e-05
2.31489e-05
1.90936e-05
2.1132e-05
-2.30717e-05
2.25775e-11
-2.18734e-11
1.81866e-05
-1.79067e-05
2.18911e-06
3.08076e-06
3.0835e-06
2.1869e-06
-2.28039e-06
-3.1304e-06
-3.13167e-06
-2.27773e-06
1.37355e-06
-1.37367e-06
1.27059e-10
1.19682e-07
-9.19781e-12
-2.89153e-08
-9.07579e-08
7.07253e-06
-3.93977e-06
4.82502e-07
5.10352e-07
4.82513e-07
5.10261e-07
2.45381e-05
-9.22744e-06
4.79139e-05
-2.05572e-05
7.59915e-05
-3.90227e-05
0.000108907
-6.48888e-05
0.000148115
-9.79875e-05
-0.000142239
0.000114618
-1.20679e-05
0.00010769
-1.60476e-05
9.85682e-05
-2.49733e-05
8.62893e-05
-3.89798e-05
7.0784e-05
-5.6918e-05
1.32921e-05
-1.64868e-05
1.04628e-05
1.32924e-05
1.04618e-05
-1.59953e-05
-1.6487e-05
-1.59943e-05
-1.55643e-05
6.21674e-11
1.95945e-05
2.11924e-06
2.51043e-06
2.51324e-06
2.11897e-06
1.86783e-06
-1.10387e-06
4.55144e-10
-7.64416e-07
1.03982e-08
-8.77714e-13
-1.67216e-08
6.3243e-09
1.00705e-05
-1.38549e-05
1.05985e-07
-1.83361e-07
1.05733e-07
-1.83639e-07
2.86256e-05
-2.77826e-05
5.37191e-05
-4.56507e-05
8.367e-05
-6.89736e-05
0.000117685
-9.89042e-05
0.000155829
-0.000136131
-0.000186143
0.000122177
-4.56627e-06
0.00011259
-6.46097e-06
9.85626e-05
-1.09454e-05
7.76768e-05
-1.80941e-05
1.30213e-05
-2.78185e-05
1.1267e-05
1.30218e-05
1.12672e-05
9.66358e-06
-1.31291e-05
1.58836e-11
2.91492e-06
-1.70404e-06
1.43863e-10
1.34093e-06
-2.55195e-06
-2.29684e-08
6.11504e-11
8.5976e-08
-6.30688e-08
3.27585e-05
-3.28341e-05
-2.772e-06
-4.11749e-06
-2.77223e-06
-4.11762e-06
5.60885e-05
-5.11126e-05
8.29746e-05
-7.25368e-05
0.000112036
-9.80347e-05
0.000142048
-0.000128916
0.000171962
-0.000166045
-0.000213984
0.00014298
3.79965e-06
0.000131681
4.83769e-06
0.000113821
6.91481e-06
8.50097e-05
1.07172e-05
1.09159e-05
1.44461e-05
1.04586e-05
1.09145e-05
1.0456e-05
5.91348e-06
-4.20057e-06
-1.02365e-10
9.20311e-06
1.25107e-06
-5.76868e-07
1.55736e-10
2.31399e-07
-9.05751e-07
5.38389e-05
-4.03846e-05
3.09967e-06
3.73047e-06
3.0996e-06
3.73075e-06
-5.26153e-06
-8.2963e-06
-5.26099e-06
-8.29601e-06
7.91532e-05
-5.81484e-05
0.000105552
-7.75111e-05
0.000131541
-9.85264e-05
0.000155727
-0.000122221
0.000176588
-0.000149777
0.000192322
-0.000181779
-0.000221563
0.000180316
1.188e-05
0.000169087
1.60664e-05
0.000150274
2.57276e-05
0.000116918
4.40738e-05
1.35795e-05
7.17356e-05
1.62375e-05
1.35766e-05
1.62347e-05
-1.32737e-06
1.03386e-05
-2.14571e-10
1.11143e-06
1.17278e-06
1.17289e-06
1.11142e-06
1.71512e-07
-1.46209e-07
1.28724e-11
-2.5316e-08
3.56235e-07
-6.73661e-07
7.03598e-06
-5.15814e-06
-1.68632e-11
3.55371e-07
3.00141e-07
3.00811e-07
-6.74784e-07
-9.20166e-07
-9.21773e-07
9.3292e-05
-5.62434e-05
5.11575e-06
5.63591e-06
5.11585e-06
5.63609e-06
-1.18173e-05
-1.74594e-05
-1.18164e-05
-1.74591e-05
0.000123045
-7.01373e-05
0.000150622
-8.57253e-05
0.000174992
-0.000101882
0.000195229
-0.000118763
0.000209877
-0.000136869
0.00021713
-0.00015703
0.000214883
-0.000179532
-0.000206664
0.000235147
1.81999e-05
0.000227067
2.41459e-05
0.000214201
3.85937e-05
0.000190412
6.78631e-05
2.91337e-05
0.00011784
4.3023e-05
2.9129e-05
4.30213e-05
-2.10209e-05
3.67845e-05
-3.83494e-10
3.8165e-06
2.86727e-06
2.86501e-06
3.82171e-06
-3.60667e-07
5.50893e-12
9.83944e-07
-6.23282e-07
1.08294e-06
-1.37654e-05
1.97494e-05
-1.03408e-05
3.23165e-11
1.08267e-06
1.09417e-06
1.09701e-06
0.000165171
-7.5902e-05
9.21672e-06
9.68521e-06
9.21611e-06
9.685e-06
-2.64264e-05
-3.71098e-05
-2.64263e-05
-3.71094e-05
0.000194633
-8.57057e-05
0.000220867
-9.63712e-05
0.000242279
-0.000107138
0.000258106
-0.000117708
0.000267283
-0.00012794
0.00026829
-0.000137876
0.000259085
-0.000147825
0.000237406
-0.000157853
-0.000169334
0.000302066
2.17167e-05
0.000298834
2.73782e-05
0.000296117
4.13104e-05
0.000297218
6.67627e-05
7.08187e-05
0.000100482
8.64689e-05
7.08192e-05
8.64698e-05
-4.75705e-05
7.39224e-05
4.44668e-05
7.27253e-11
-2.33044e-05
-1.49555e-09
1.67114e-05
6.59452e-06
2.06666e-06
-5.1419e-05
5.15426e-05
-7.81118e-06
1.78998e-10
2.0646e-06
1.77776e-06
1.77845e-06
0.000280375
-5.60936e-05
1.11365e-05
1.18232e-05
1.11367e-05
1.18232e-05
-5.59464e-05
-7.9153e-05
-5.59474e-05
-7.91541e-05
0.000294693
-7.55378e-05
1.5284e-05
1.53257e-05
1.52841e-05
1.53259e-05
0.000308294
-8.95027e-05
0.000322161
-9.9573e-05
0.000333323
-0.000107533
0.000340232
-0.000114046
0.000341568
-0.000119045
0.000335862
-0.000122234
0.000321349
-0.000123363
0.00029574
-0.000122216
0.000256499
-0.000118612
-0.000112987
0.000369167
2.19088e-05
0.000370435
2.61108e-05
0.000375866
3.58787e-05
0.000391602
5.1027e-05
0.00042592
6.61635e-05
0.000482567
9.12358e-05
-3.74711e-05
-3.64724e-05
-3.74701e-05
-3.64692e-05
0.000497011
5.68902e-05
-2.61061e-05
-9.56245e-06
-2.61022e-05
-9.56302e-06
0.000478242
2.13082e-07
2.57649e-06
6.70033e-06
2.57732e-06
6.70147e-06
0.000461417
-3.9269e-05
0.000449982
-6.41024e-05
0.000441576
-8.10962e-05
0.000434738
-9.27355e-05
0.000427384
-0.000100179
0.000417509
-0.000104171
0.000403439
-0.000104975
0.000383534
-0.000102329
0.000355985
-9.58144e-05
0.000318381
-8.46113e-05
0.000267884
-6.8115e-05
-4.53349e-05
0.000419311
1.92551e-05
0.000423401
2.20204e-05
0.000431458
2.78219e-05
0.00044606
3.6425e-05
0.00046934
4.28842e-05
0.000509724
5.08513e-05
0.000532587
3.4027e-05
0.000532884
-8.36432e-08
0.000524346
-3.07314e-05
0.000512827
-5.25829e-05
0.00049923
-6.74991e-05
0.000483753
-7.72585e-05
0.000466175
-8.2601e-05
0.000445886
-8.38829e-05
0.000422104
-8.11924e-05
0.000393996
-7.42205e-05
0.000360402
-6.22211e-05
0.000319353
-4.35622e-05
0.000267907
-1.66689e-05
2.22684e-05
0.000433193
1.4874e-05
0.000438572
1.66413e-05
0.000446615
1.97786e-05
0.000459041
2.39993e-05
0.000476015
2.59098e-05
0.000500535
2.63317e-05
0.000518337
1.62248e-05
0.000522387
-4.13328e-06
0.000516574
-2.49186e-05
0.000504769
-4.07781e-05
0.00048848
-5.12097e-05
0.000468465
-5.72433e-05
0.000445358
-5.94937e-05
0.000419697
-5.82227e-05
0.000391903
-5.33977e-05
0.000362217
-4.45347e-05
0.0003305
-3.05049e-05
0.00029603
-9.0919e-06
0.000255257
2.41043e-05
7.71534e-05
0.000394069
9.70205e-06
0.000400083
1.06275e-05
0.000407944
1.1917e-05
0.000418632
1.3312e-05
0.000431292
1.32493e-05
0.000446013
1.16107e-05
0.000456955
5.28266e-06
0.000458752
-5.92996e-06
0.00045148
-1.76467e-05
0.000437276
-2.65739e-05
0.000417883
-3.18166e-05
0.000394664
-3.4024e-05
0.00036896
-3.37899e-05
0.000342127
-3.13896e-05
0.000315539
-2.68104e-05
0.000290484
-1.94796e-05
0.000268069
-8.08966e-06
0.000248284
1.06934e-05
0.000229217
4.31713e-05
0.000105938
0.000291033
4.21206e-06
0.00029723
4.43037e-06
0.000304619
4.52788e-06
0.000313339
4.59274e-06
0.000322423
4.16536e-06
0.00033091
3.12329e-06
0.000335926
2.67094e-07
0.000333811
-3.81509e-06
0.000324082
-7.91834e-06
0.000308163
-1.06546e-05
0.000288145
-1.17986e-05
0.000265875
-1.17535e-05
0.000243003
-1.09178e-05
0.00022107
-9.45685e-06
0.000201595
-7.33546e-06
0.000186293
-4.1781e-06
0.000177125
1.079e-06
0.000177102
1.07164e-05
0.000188507
3.17658e-05
9.39533e-05
0.000119739
0.000124169
0.000128697
0.00013329
0.000137455
0.000140579
0.000140846
0.000137031
0.000129112
0.000118458
0.000106659
9.49057e-05
8.39879e-05
7.4531e-05
6.71956e-05
6.30175e-05
6.40965e-05
7.48129e-05
0.000106579
1.0188e-09
-3.86219e-06
-2.84555e-06
-2.84305e-06
-3.8531e-06
-4.98092e-11
-3.95205e-06
-3.33656e-06
-3.34191e-06
1.1616e-05
9.06793e-06
9.07652e-06
1.16128e-05
8.44492e-06
-2.70455e-06
2.42261e-09
2.19784e-06
-7.94063e-06
6.30621e-05
-2.26642e-05
6.23913e-05
-3.85891e-06
-2.84305e-06
-2.84335e-06
-3.84635e-06
-3.95265e-06
1.16136e-05
9.06036e-06
9.07504e-06
1.16085e-05
-3.95435e-06
-3.33307e-06
-3.33858e-06
8.42918e-06
-2.68785e-06
1.27384e-09
2.19403e-06
-7.93664e-06
9.22017e-06
5.71424e-10
5.20061e-10
4.39268e-07
8.00513e-06
5.8208e-10
1.63782e-06
-9.84638e-06
-6.8465e-06
-6.84904e-06
-9.85064e-06
1.64017e-06
1.48752e-06
1.48888e-06
5.97066e-05
4.66152e-07
-8.38439e-07
-8.35066e-07
4.64993e-07
9.22554e-06
4.38097e-10
4.33123e-07
7.99562e-06
1.63776e-06
-9.84371e-06
-6.84066e-06
-6.84653e-06
-9.84513e-06
1.64021e-06
1.48731e-06
1.48872e-06
-1.19909e-09
6.58449e-06
4.76111e-06
4.763e-06
-2.9397e-06
-1.82397e-06
-1.82655e-06
-2.93451e-06
-6.91836e-10
-2.11348e-06
-1.73744e-06
-1.73706e-06
3.68123e-06
2.37097e-06
2.37026e-06
3.6815e-06
3.15702e-05
-1.95942e-05
6.57942e-06
-2.93907e-06
-1.83072e-06
-1.83073e-06
-2.93426e-06
6.58208e-06
4.75683e-06
4.76059e-06
-2.10166e-06
3.67853e-06
2.36869e-06
2.36891e-06
3.67694e-06
-2.11254e-06
-1.73687e-06
-1.7363e-06
4.25215e-10
-2.70498e-06
5.03663e-10
5.68639e-06
-3.06013e-06
1.07524e-10
-2.68796e-06
-8.67646e-10
-2.72154e-06
1.27462e-06
2.42318e-07
-4.94026e-08
9.33237e-11
-1.93009e-07
3.08465e-06
-8.69434e-10
-2.72034e-06
1.27433e-06
2.41651e-07
-4.89286e-08
1.58509e-10
-1.92881e-07
7.37454e-06
6.59318e-11
5.79077e-06
4.71834e-11
1.93628e-07
1.72988e-07
1.74345e-07
-2.41702e-07
-4.10571e-07
-4.12343e-07
6.29295e-11
2.25412e-06
1.45866e-05
5.21962e-06
-3.08668e-06
-1.69202e-06
-1.68929e-06
7.37533e-06
5.78962e-06
1.95306e-07
-2.41749e-07
-4.10514e-07
-4.12446e-07
1.93704e-07
1.72966e-07
1.74436e-07
2.25344e-06
2.45967e-10
2.26488e-06
1.58522e-06
1.58517e-06
-1.49776e-06
-1.35799e-06
-1.35704e-06
-1.49755e-06
-2.93799e-06
-2.73931e-10
2.23049e-06
2.08132e-06
1.71097e-05
-2.47748e-05
-2.34068e-06
-3.0105e-06
-3.01089e-06
-2.33836e-06
2.2542e-06
-1.49693e-06
-1.35755e-06
-1.35666e-06
-1.49602e-06
2.26401e-06
1.58474e-06
1.58449e-06
-1.37318e-06
-2.93648e-06
-2.00155e-10
2.23024e-06
2.07963e-06
3.60932e-10
1.73707e-06
-1.58489e-06
-1.29877e-11
-4.89296e-08
1.03594e-12
5.28634e-07
2.83955e-11
-2.55611e-07
-3.33887e-07
-3.33965e-07
-2.55817e-07
2.98817e-11
1.17521e-07
2.13156e-09
3.99511e-11
-8.7128e-07
-4.76261e-08
-5.3428e-08
-5.31238e-08
-4.73397e-08
-2.38588e-10
1.80345e-07
-3.37306e-08
5.28759e-07
-2.55714e-07
-3.34014e-07
-3.34123e-07
-2.56031e-07
-1.19767e-07
2.2448e-11
1.17593e-07
2.15157e-09
-8.70737e-07
-4.76784e-08
-5.34489e-08
-5.31743e-08
-4.74207e-08
2.23853e-06
7.93761e-10
-2.25096e-06
-1.36204e-06
-2.04816e-06
-9.95817e-10
2.4235e-06
1.49349e-06
1.81856e-05
-1.79052e-05
2.18903e-06
3.08008e-06
3.08309e-06
2.18685e-06
-2.28044e-06
-3.12978e-06
-3.1313e-06
-2.27792e-06
1.37331e-06
2.23835e-06
8.0959e-10
-2.25047e-06
-1.362e-06
-1.86743e-06
-2.04804e-06
-1.01738e-09
2.42306e-06
1.49344e-06
1.33449e-10
-6.99911e-07
5.34887e-11
7.41507e-08
8.1552e-08
8.11094e-08
7.4268e-08
-9.80746e-12
3.52141e-08
-2.48061e-08
2.75838e-11
-5.01778e-07
8.13955e-08
7.45245e-08
7.45612e-08
8.17104e-08
-2.83063e-11
-2.86658e-08
-9.10734e-08
-6.99055e-07
7.42324e-08
8.1475e-08
8.10044e-08
7.41731e-08
-1.04134e-08
-7.67295e-13
3.55129e-08
-2.50988e-08
-5.01528e-07
8.16026e-08
7.48102e-08
7.47346e-08
8.16153e-08
3.09436e-06
7.9303e-10
-1.99434e-06
-2.20468e-06
-4.07735e-11
-2.91643e-06
-2.31814e-06
-2.31947e-06
1.52736e-06
1.15747e-06
1.1569e-06
1.52575e-06
-9.34067e-11
6.53762e-07
-6.53669e-07
-1.55602e-05
1.95915e-05
2.11918e-06
2.51018e-06
2.51285e-06
2.11895e-06
1.10386e-06
3.09376e-06
7.5086e-10
-1.99403e-06
-2.20434e-06
-2.91377e-06
1.52679e-06
1.15844e-06
1.15775e-06
1.52457e-06
-2.91591e-06
-2.31729e-06
-2.31903e-06
-5.59546e-11
6.55079e-07
-6.55023e-07
4.3742e-10
-7.64014e-07
-5.79027e-07
1.88614e-11
4.68624e-08
4.46306e-08
4.47367e-08
4.69843e-08
-1.18282e-11
-2.83667e-08
5.41014e-09
5.23222e-12
-7.40123e-07
4.33852e-09
-1.53757e-08
-1.55254e-08
4.29216e-09
7.75644e-12
-1.6811e-08
6.38982e-09
-5.79109e-07
4.69314e-08
4.47559e-08
4.46988e-08
4.6946e-08
2.28332e-08
-5.31321e-12
-2.83415e-08
5.51365e-09
-7.40204e-07
4.28786e-09
-1.54752e-08
-1.55864e-08
4.23497e-09
-7.58299e-07
2.69956e-12
1.67823e-06
3.31135e-07
-1.70365e-06
1.33735e-10
1.34052e-06
-2.55078e-06
-1.24905e-06
-7.59414e-07
-7.50887e-11
1.67603e-06
3.325e-07
2.18814e-07
-1.85131e-07
-2.94935e-11
1.59518e-07
-1.93172e-07
2.18861e-07
-1.85187e-07
-2.90307e-11
1.59584e-07
-1.93229e-07
-2.5045e-06
1.8806e-11
-2.79289e-07
-2.24527e-07
-2.24038e-07
-2.79794e-07
2.89154e-06
1.65788e-11
2.68225e-07
2.07069e-07
2.06104e-07
2.68436e-07
-2.20333e-07
-1.51405e-07
-1.51174e-07
3.17128e-11
5.06732e-11
8.60666e-08
-6.32841e-08
-2.50439e-06
-2.79368e-07
-2.24675e-07
-2.24183e-07
-2.79792e-07
2.89123e-06
-2.20362e-07
-1.51452e-07
-1.51204e-07
2.68319e-07
2.07317e-07
2.06276e-07
2.68358e-07
-4.83844e-06
-1.65347e-10
8.6678e-06
5.77377e-07
4.65566e-07
4.64477e-07
4.93079e-06
-1.70657e-10
-2.11692e-10
1.96798e-07
-3.44882e-07
1.96899e-07
3.02953e-07
3.02601e-07
-3.43983e-07
-1.09404e-07
-1.08422e-07
5.91158e-06
-4.20143e-06
9.20425e-06
-4.83751e-06
5.7769e-07
8.66747e-06
5.77731e-07
4.62884e-07
4.6315e-07
4.92787e-06
1.32657e-06
1.96329e-07
-3.44764e-07
1.96674e-07
3.01366e-07
3.01811e-07
-3.43761e-07
-1.09264e-07
-1.08235e-07
-5.37757e-11
3.68365e-07
5.7782e-11
2.3028e-07
-9.01694e-07
-1.70374e-07
-4.35283e-11
3.66747e-07
-9.19826e-11
3.56327e-07
9.7525e-07
-5.70192e-07
-2.77353e-10
4.03171e-07
-8.07952e-07
-3.55521e-07
-8.05966e-11
3.55601e-07
9.7518e-07
-5.70489e-07
-2.8716e-10
4.03128e-07
-8.07532e-07
-3.9304e-06
-3.65695e-12
-6.24014e-07
-4.20556e-07
-4.20621e-07
-6.23704e-07
1.86527e-07
1.93114e-07
1.92992e-07
6.5908e-06
2.00991e-11
5.20473e-07
3.87688e-07
3.87241e-07
5.19239e-07
-9.77265e-07
-6.68928e-07
-6.6827e-07
1.09539e-11
-3.93018e-06
1.86562e-07
1.93172e-07
1.92997e-07
-6.23931e-07
-4.20593e-07
-4.20629e-07
-6.23585e-07
6.59009e-06
-9.77136e-07
-6.68544e-07
-6.68036e-07
5.20476e-07
3.87714e-07
3.87245e-07
5.19247e-07
1.53543e-10
-5.34342e-07
4.30971e-08
-2.41344e-10
1.24668e-06
1.53183e-06
1.53039e-06
1.24656e-06
1.12504e-06
1.71263e-10
-7.2082e-07
-4.04392e-07
1.03366e-05
1.11103e-06
1.1722e-06
1.17259e-06
1.11058e-06
1.4588e-07
1.76059e-10
-5.33944e-07
4.31238e-08
2.10171e-05
1.24645e-06
1.53136e-06
1.53018e-06
1.24595e-06
1.12459e-06
2.05265e-10
-7.2047e-07
-4.04325e-07
1.34269e-13
-2.44943e-08
1.25606e-06
-7.0156e-07
6.89726e-11
3.35369e-07
-8.89934e-07
1.25593e-06
-7.01757e-07
6.02132e-11
3.34556e-07
-8.88794e-07
4.57312e-10
-2.62311e-07
-4.11807e-07
-5.00525e-10
5.66612e-07
1.77289e-06
4.62406e-11
1.07485e-05
-5.94179e-06
5.34935e-07
6.09965e-07
6.13383e-07
5.36501e-07
-1.46752e-06
-2.08261e-06
-2.08339e-06
-1.46798e-06
6.73523e-07
4.56565e-10
-2.62277e-07
-4.11703e-07
-1.08307e-06
-5.04112e-10
5.67021e-07
1.77249e-06
1.07478e-05
-5.94111e-06
5.34894e-07
6.09599e-07
6.13097e-07
5.36454e-07
-1.46724e-06
-2.08263e-06
-2.08337e-06
-1.46746e-06
-7.03281e-06
1.48579e-11
5.72111e-07
5.54108e-07
5.55064e-07
1.4807e-05
9.96829e-12
1.05177e-11
7.03599e-06
-5.15735e-06
3.54985e-07
2.99697e-07
3.00548e-07
-6.74641e-07
-9.19744e-07
-9.21508e-07
-7.0325e-06
5.72203e-07
5.54333e-07
5.55111e-07
1.48066e-05
-2.5432e-11
-9.46098e-07
2.07116e-06
-7.7301e-11
6.55339e-06
9.56279e-06
9.57245e-06
6.54842e-06
1.46724e-05
4.06137e-09
-7.29948e-06
-7.37697e-06
3.6773e-05
3.81739e-06
2.86745e-06
2.8657e-06
3.82213e-06
5.79543e-11
-9.46467e-07
2.071e-06
4.75609e-05
6.55541e-06
9.55831e-06
9.56884e-06
6.55078e-06
1.46727e-05
3.17974e-09
-7.30891e-06
-7.36693e-06
3.40772e-06
-1.46585e-06
8.61625e-10
7.63388e-07
-2.70612e-06
3.40764e-06
-1.46724e-06
8.86141e-10
7.62696e-07
-2.70398e-06
-5.31274e-12
-3.60662e-07
-1.60256e-10
1.07221e-06
4.40234e-06
1.29982e-10
2.03335e-05
-7.88106e-06
6.34165e-07
7.18798e-07
7.17996e-07
6.35068e-07
-2.78451e-06
-4.79387e-06
-4.79038e-06
-2.78981e-06
3.60516e-07
-6.28863e-12
-3.6051e-07
-2.06594e-06
-2.68061e-10
1.07236e-06
4.40148e-06
2.03309e-05
-7.87869e-06
6.34117e-07
7.18607e-07
7.17851e-07
6.35077e-07
-2.78456e-06
-4.79367e-06
-4.79004e-06
-2.78947e-06
-8.34353e-06
2.57286e-11
-2.54578e-06
-1.5737e-06
-1.57153e-06
-2.54587e-06
7.03752e-07
7.05889e-07
7.03771e-07
2.59802e-05
5.02471e-11
1.46746e-06
1.27787e-06
1.27817e-06
1.46617e-06
4.52936e-11
2.94598e-05
7.91632e-12
9.83725e-07
-6.23217e-07
-8.34181e-06
1.37642e-05
7.03796e-07
7.05202e-07
7.03318e-07
-2.54544e-06
-1.57404e-06
-1.57166e-06
-2.54533e-06
2.59784e-05
1.46731e-06
1.27786e-06
1.27814e-06
1.46594e-06
2.94599e-05
1.33965e-06
-2.99283e-10
-1.71332e-05
-1.33974e-05
-1.34575e-05
-1.71082e-05
1.46048e-06
2.70634e-06
2.70523e-06
9.81953e-05
-1.62191e-10
-0.000100018
-5.03403e-06
-7.09195e-06
-7.09752e-06
-5.05933e-06
-5.89734e-11
8.99725e-05
-2.33022e-05
-1.65936e-09
1.67101e-05
6.59381e-06
1.35017e-06
5.14138e-05
1.46135e-06
2.7042e-06
2.70418e-06
-1.71312e-05
-1.34033e-05
-1.34627e-05
-1.71039e-05
9.81868e-05
-0.000100017
-5.0313e-06
-7.09045e-06
-7.09656e-06
-5.05441e-06
8.99739e-05
2.98119e-06
-2.98116e-06
-5.118e-10
4.82503e-10
5.70007e-06
-3.06668e-06
-4.73761e-10
3.09521e-09
-2.98236e-06
5.35023e-06
-1.80437e-09
2.98287e-06
-1.29392e-06
5.34213e-06
3.21875e-10
-1.28599e-06
-6.52997e-10
-3.52925e-11
-2.25488e-06
2.25491e-06
-2.25432e-06
2.2543e-06
-1.54802e-11
-1.815e-05
-6.55914e-11
2.14448e-05
-4.73044e-11
-1.22436e-10
2.93593e-06
3.89494e-06
3.89575e-06
-2.24115e-06
-2.9436e-06
-2.94647e-06
2.87154e-05
-2.27766e-05
-1.81512e-05
2.14427e-05
2.93506e-06
3.89359e-06
3.89505e-06
-2.24094e-06
-2.9432e-06
-2.94624e-06
1.73683e-06
-1.58503e-06
-5.32262e-11
2.0661e-10
-1.50695e-10
-1.87237e-11
-7.69787e-12
-1.88551e-08
-7.98312e-08
-2.28948e-10
-1.56694e-07
-1.11775e-12
1.78506e-07
-3.3816e-08
4.86808e-08
-9.4404e-13
-3.80206e-11
1.92654e-08
1.03456e-10
7.9743e-08
-1.13661e-07
-7.23461e-12
-1.13548e-07
3.88651e-12
-1.57038e-07
-1.94803e-05
1.506e-11
1.56154e-05
4.30057e-11
5.64453e-11
2.04951e-06
2.78039e-06
2.78258e-06
-3.09664e-06
-3.66636e-06
-3.66826e-06
2.1132e-05
-2.30708e-05
-1.9478e-05
1.56144e-05
2.04933e-06
2.78027e-06
2.78257e-06
-3.09633e-06
-3.66579e-06
-3.66792e-06
1.37464e-06
-1.3745e-06
-4.54159e-12
1.99097e-07
2.81686e-08
-5.66083e-11
-1.53049e-07
-8.83902e-12
-2.89142e-08
-9.08072e-08
1.19708e-07
4.46879e-12
-2.786e-11
-1.99148e-07
2.51812e-07
1.12262e-11
-2.827e-08
-6.24991e-08
2.51265e-07
-7.31848e-13
-6.26291e-08
1.72884e-12
-1.53206e-07
-7.64579e-07
1.86933e-06
-1.1043e-06
7.32612e-14
-6.24361e-11
-7.64354e-07
-7.64644e-07
1.95458e-12
2.12268e-08
1.56839e-08
-5.40838e-12
9.9629e-09
-5.83708e-12
-1.67639e-08
6.34739e-09
1.04135e-08
2.17609e-12
2.63634e-11
-2.12352e-08
4.91178e-08
-1.66023e-12
-1.56812e-08
2.20072e-08
4.92297e-08
-3.74683e-12
2.20296e-08
5.75811e-14
1.00625e-08
-1.25223e-05
2.69463e-11
1.70589e-06
1.39014e-06
1.39053e-06
7.341e-06
-9.84471e-12
4.40128e-11
7.59546e-07
9.83953e-07
9.84614e-07
9.66471e-06
-1.31298e-05
-1.25202e-05
1.70583e-06
1.39048e-06
1.39067e-06
7.34163e-06
7.60158e-07
9.84435e-07
9.84894e-07
1.72536e-06
-9.302e-07
3.30646e-10
5.68374e-07
-1.36386e-06
-4.64602e-12
1.34171e-06
-2.55211e-06
7.39627e-13
6.36304e-10
-1.72627e-06
7.48417e-07
-2.65392e-10
9.30737e-07
-2.09228e-06
7.4824e-07
3.88438e-12
-2.09205e-06
6.32009e-12
5.68485e-07
-1.36368e-06
1.4006e-07
-1.51087e-07
-3.47905e-11
-2.49954e-12
8.60054e-08
-6.30524e-08
-2.28944e-08
2.53763e-12
1.11255e-10
-1.40611e-07
1.94828e-09
-7.14502e-11
1.52003e-07
-7.93157e-09
2.13353e-09
5.04366e-12
-8.09931e-09
-7.08844e-12
2.30993e-07
-2.31015e-07
5.87462e-11
-3.67696e-11
2.30643e-07
-9.03063e-07
1.24985e-06
1.03356e-10
2.02638e-10
-2.31837e-07
4.63033e-07
-5.47218e-10
2.31778e-07
-6.71416e-07
4.61688e-07
1.51132e-10
-6.69943e-07
-2.06062e-10
4.20607e-07
-5.24418e-07
2.70483e-10
1.70882e-15
1.41882e-11
-4.2057e-07
-1.06045e-10
5.24765e-07
-1.36971e-07
-3.73406e-13
-1.37283e-07
-3.44238e-13
-2.45819e-08
1.705e-07
-1.45919e-07
1.40151e-11
1.00134e-11
-2.5326e-08
-2.45665e-08
-5.36207e-12
-2.04892e-07
-1.34608e-12
4.48466e-07
-2.43577e-07
3.64584e-12
-5.41703e-11
2.04685e-07
-2.04631e-07
-2.04947e-07
1.23432e-12
4.4714e-07
-2.42457e-07
8.45405e-11
4.33776e-07
-4.33862e-07
1.83998e-12
4.32854e-07
-4.32769e-07
9.99815e-07
-2.07884e-06
7.07363e-10
-3.7012e-13
9.84588e-07
-6.24403e-07
-3.60178e-07
-1.70115e-12
2.4014e-10
-1.00232e-06
4.12325e-07
-3.39682e-10
2.08132e-06
-1.42639e-06
4.13112e-07
-3.47679e-12
-1.42541e-06
-2.3874e-13
-1.26188e-05
3.49528e-11
3.4403e-05
2.13803e-11
2.01357e-11
1.97477e-05
-1.03408e-05
1.08269e-06
1.09445e-06
1.09717e-06
-1.26196e-05
3.44032e-05
4.30264e-05
2.75312e-10
2.33511e-05
1.93568e-05
1.93664e-05
-1.46979e-05
-1.25557e-05
-1.25569e-05
9.34645e-05
6.4886e-11
2.10164e-11
7.39157e-05
4.44645e-05
4.30215e-05
-1.46984e-05
-1.25525e-05
-1.25563e-05
2.33517e-05
1.93547e-05
1.93657e-05
9.34642e-05
-3.29342e-06
-1.88744e-05
7.96815e-10
-2.05751e-10
1.67436e-05
6.60591e-06
7.48936e-11
7.0415e-09
3.30693e-06
-4.0228e-10
1.88598e-05
-2.61615e-10
-2.99328e-11
-1.2285e-05
9.93154e-11
8.47377e-05
9.89544e-11
5.26426e-11
5.15395e-05
-7.81218e-06
2.06433e-06
1.77777e-06
1.77866e-06
-1.22866e-05
8.47392e-05
1.15324e-05
-3.77992e-06
1.08381e-09
1.87898e-10
2.19833e-06
-7.93691e-06
8.80405e-10
8.43893e-06
-2.69881e-06
3.62904e-10
-1.15364e-05
1.08884e-05
-2.04083e-09
3.77564e-06
-2.6463e-06
3.61806e-10
1.08877e-05
2.10697e-10
-2.64256e-06
1.15291e-05
-3.77554e-06
1.29638e-09
2.1982e-06
-7.93771e-06
8.43013e-06
-2.68846e-06
-7.71719e-11
-1.15306e-05
1.08816e-05
-2.01956e-09
3.76711e-06
-2.64137e-06
1.08843e-05
-2.64002e-06
-1.04831e-05
1.10072e-06
5.55243e-10
1.43032e-10
4.35735e-07
8.00358e-06
1.31022e-10
-5.41462e-10
1.04831e-05
-8.07542e-10
-1.09543e-06
1.38319e-10
1.33203e-10
-1.04802e-05
1.10201e-06
7.76913e-10
4.31631e-07
7.99907e-06
-7.80784e-10
1.04771e-05
-1.00217e-09
-1.09774e-06
2.25371e-06
2.25368e-06
3.11314e-06
-2.37018e-06
-1.19907e-09
-2.26067e-10
-8.63349e-10
-3.11684e-06
1.29373e-06
-7.74586e-11
2.37104e-06
-1.90383e-10
1.28592e-06
-4.38954e-12
3.10971e-06
-2.36887e-06
-1.59776e-09
-4.17731e-10
-3.1098e-06
1.2795e-06
-3.56942e-11
2.36872e-06
1.27837e-06
-2.69862e-06
2.35708e-10
-1.04758e-09
-9.66682e-11
-1.84762e-10
-2.56812e-10
2.97868e-06
-2.97811e-06
-8.54156e-11
5.68628e-06
-3.05852e-06
2.5931e-09
-2.97754e-06
5.32828e-06
-1.45807e-09
2.97763e-06
-1.27947e-06
5.32929e-06
-1.27814e-06
-2.68812e-06
-1.05538e-09
3.20878e-11
-1.02256e-06
1.02257e-06
-8.67681e-12
-1.06909e-12
-2.72006e-06
1.27211e-06
4.33054e-11
-5.54276e-10
1.02145e-06
3.26963e-10
-1.02144e-06
6.0334e-07
1.32338e-11
6.05551e-07
2.86482e-11
-1.92943e-07
3.98793e-12
-4.86693e-08
-2.40891e-10
2.35154e-11
-3.14353e-11
2.25374e-06
2.25363e-06
-1.02257e-06
1.02258e-06
-1.37491e-11
-2.71922e-06
1.27192e-06
-5.75963e-10
1.02128e-06
3.68133e-10
-1.02127e-06
6.03205e-07
6.05615e-07
-1.93003e-07
-4.85835e-08
-1.89064e-10
-3.11389e-06
-1.32025e-06
-4.11889e-10
2.09359e-06
-4.54856e-11
2.22887e-06
2.08149e-06
-6.68052e-11
5.93303e-10
3.11349e-06
-4.31801e-10
1.32029e-06
7.61468e-07
-3.17183e-11
7.60885e-07
-7.2667e-11
2.09439e-06
1.3569e-06
-7.60926e-07
-1.0397e-10
-4.98681e-11
2.20566e-10
-1.35821e-06
-5.19779e-12
7.61473e-07
8.70605e-11
-4.61171e-11
-3.11341e-06
-1.3197e-06
-4.54996e-10
2.09284e-06
2.22865e-06
2.0806e-06
-1.37446e-06
6.25033e-10
3.11271e-06
-3.61736e-10
1.31927e-06
7.60723e-07
7.60463e-07
2.09316e-06
1.35644e-06
-7.60453e-07
-1.39097e-10
1.30305e-10
-1.35768e-06
3.5691e-11
7.60687e-07
1.73611e-06
-1.58433e-06
2.07223e-10
-1.45777e-10
-1.45433e-12
-4.85839e-08
-3.83606e-09
-2.00558e-07
7.26349e-11
1.45869e-12
1.17395e-07
2.34119e-09
1.4437e-12
-8.14474e-12
3.86813e-09
7.87272e-11
2.00437e-07
3.06174e-12
2.71717e-12
-1.89324e-08
-7.98877e-08
-2.18436e-10
-1.56677e-07
1.78662e-07
-3.37809e-08
-3.44807e-11
1.93312e-08
9.59234e-11
7.98823e-08
-1.13709e-07
-1.13569e-07
-1.57036e-07
-3.85941e-09
-2.00577e-07
8.23156e-11
1.1744e-07
2.3486e-09
-1.19765e-07
-1.52574e-11
3.89996e-09
7.105e-11
2.00474e-07
-2.51843e-07
-2.51329e-07
2.11468e-06
1.36292e-06
4.06085e-10
-1.28889e-06
-4.92468e-12
-2.25192e-06
-1.36292e-06
-1.6532e-11
2.00742e-10
-2.11399e-06
-5.46868e-13
-1.36204e-06
-1.2066e-11
-1.92288e-12
-1.28872e-06
-2.07449e-06
-1.49427e-06
-5.08499e-10
1.28888e-06
-1.41752e-12
2.42355e-06
1.49429e-06
3.707e-12
3.41763e-11
2.07346e-06
-1.82662e-11
1.49351e-06
1.62638e-12
-5.63094e-13
1.28873e-06
-9.07206e-12
-6.54354e-13
2.11454e-06
1.36289e-06
4.00506e-10
-1.2888e-06
-2.25158e-06
-1.36289e-06
1.37433e-06
2.08802e-10
-2.1138e-06
2.20645e-12
-1.362e-06
-1.28856e-06
-2.0745e-06
-1.49424e-06
-5.00555e-10
1.2888e-06
2.42321e-06
1.49426e-06
-1.86915e-06
2.35456e-11
2.07352e-06
-2.16443e-11
1.49346e-06
1.28856e-06
-9.00909e-12
2.72723e-08
-9.88655e-08
-4.29705e-11
-1.77762e-11
3.53535e-08
-2.49484e-08
-1.44035e-12
3.96296e-12
-2.72889e-08
8.3834e-12
9.88278e-08
6.75044e-13
-1.45779e-11
1.99079e-07
2.81853e-08
-3.16701e-11
-1.53009e-07
-2.87061e-08
-9.10829e-08
-4.81827e-11
-1.98985e-07
-1.41948e-12
-2.82214e-08
-6.28506e-08
-6.28973e-08
-1.53065e-07
2.7381e-08
-9.87845e-08
-2.11475e-11
3.55173e-08
-2.51159e-08
-1.04036e-08
-1.60809e-12
-2.73361e-08
6.11612e-12
9.88072e-08
-4.91019e-08
-4.91743e-08
3.15119e-06
1.36449e-06
2.70203e-10
-2.39673e-06
1.99524e-11
-1.99638e-06
-2.20378e-06
1.03362e-11
2.19177e-10
-3.15049e-06
-2.27944e-10
-1.36525e-06
-1.60356e-06
9.6434e-12
-1.6042e-06
3.58607e-11
-2.3965e-06
9.49495e-07
-1.81862e-06
-2.8391e-10
3.63077e-11
6.54172e-07
-6.54253e-07
-1.20018e-11
5.89219e-10
-9.50382e-07
-8.9086e-10
1.82141e-06
-1.31672e-06
5.89583e-11
-6.74446e-11
-1.31679e-06
3.15092e-06
1.36416e-06
3.18047e-10
-2.3962e-06
-1.99604e-06