/*--------------------------------*- C++ -*----------------------------------*\
  =========                 |
  \\      /  F ield         | OpenFOAM: The Open Source CFD Toolbox
   \\    /   O peration     | Website:  https://openfoam.org
    \\  /    A nd           | Version:  7
     \\/     M anipulation  |
\*---------------------------------------------------------------------------*/
FoamFile
{
    version     2.0;
    format      ascii;
    class       volVectorField;
    location    "1";
    object      U;
}
// * * * * * * * * * * * * * * * * * * * * * * * * * * * * * * * * * * * * * //

dimensions      [0 1 -1 0 0 0 0];

internalField   nonuniform List<vector> 
1161
(
(0.603609 -0.0378122 0)
(0.689236 -0.0339797 0)
(0.779136 -0.0351748 2.07855e-22)
(0.878885 -0.0436651 0)
(1.00793 -0.0575909 2.60152e-22)
(1.17635 -0.0738808 1.02577e-21)
(1.38621 -0.0886131 -8.41838e-22)
(1.63005 -0.0967798 0)
(1.88935 -0.0934046 0)
(2.14447 -0.0759582 0)
(2.34757 -0.0270717 3.48175e-21)
(2.41568 0.040588 -8.26539e-21)
(2.32831 0.0879646 0)
(2.14601 0.0942339 0)
(1.94997 0.0693576 0)
(1.79952 0.0267201 0)
(1.73365 -0.0343375 -5.59229e-21)
(1.81329 -0.137092 -7.49189e-23)
(2.19107 -0.36919 0)
(2.2437 -1.01258 0)
(1.5922 -0.137221 -2.90135e-23)
(1.71621 -0.141147 -1.40398e-22)
(1.87554 -0.16295 -5.13478e-22)
(2.06747 -0.206912 0)
(2.31712 -0.269267 -5.07186e-22)
(2.63985 -0.341513 7.7526e-22)
(3.03915 -0.410253 0)
(3.50338 -0.457245 0)
(4.00296 -0.46362 0)
(4.51645 -0.423726 -5.20003e-21)
(4.96849 -0.257649 -1.00898e-20)
(5.20698 0.0139227 1.8664e-21)
(5.16712 0.240044 9.0364e-21)
(4.92506 0.334654 -9.03619e-21)
(4.60711 0.312772 0)
(4.31075 0.212009 2.09717e-20)
(4.09582 0.0469488 0)
(3.99789 -0.203634 -5.44287e-21)
(4.0532 -0.641422 -3.104e-21)
(4.05455 -1.72385 3.10431e-21)
(2.25892 -0.256193 6.20309e-23)
(2.37517 -0.283685 -3.97165e-22)
(2.53952 -0.34942 3.67795e-22)
(2.74879 -0.454496 0)
(3.0288 -0.593676 -1.12617e-21)
(3.39703 -0.753662 -1.13794e-21)
(3.85804 -0.909309 0)
(4.39654 -1.02591 -1.32019e-20)
(4.98133 -1.07187 4.27291e-20)
(5.59994 -1.0468 -3.62488e-20)
(6.16329 -0.711489 1.32043e-20)
(6.46509 -0.122577 -2.69898e-20)
(6.40644 0.364072 -8.74237e-21)
(6.12879 0.605652 -3.99248e-20)
(5.78664 0.638792 4.05862e-20)
(5.45676 0.521301 -2.09776e-20)
(5.17095 0.289952 6.4147e-22)
(4.93721 -0.0448048 -1.04316e-20)
(4.71713 -0.501728 -1.09288e-20)
(4.50954 -1.18545 2.72038e-21)
(2.60936 -0.359158 7.04664e-23)
(2.70015 -0.409649 -5.34888e-23)
(2.8378 -0.522978 -1.02404e-22)
(3.02436 -0.695926 2.57183e-21)
(3.28598 -0.920716 -8.41792e-22)
(3.64083 -1.17823 4.29782e-21)
(4.09011 -1.42653 -1.021e-21)
(4.60206 -1.61395 6.0677e-21)
(5.14675 -1.72892 -1.6647e-20)
(5.72754 -1.79825 -1.75176e-06)
(6.23576 -1.19491 -1.14315e-06)
(6.40569 -0.14334 4.72238e-06)
(6.1086 0.58056 3.22484e-06)
(5.74742 0.902504 1.24317e-19)
(5.45135 0.956058 -4.06042e-20)
(5.21002 0.820684 4.10406e-20)
(5.00122 0.55467 4.16512e-20)
(4.81102 0.203267 1.0566e-20)
(4.60023 -0.194373 -4.92753e-21)
(4.39942 -0.565325 2.57005e-21)
(2.7047 -0.431546 -1.38471e-23)
(2.76133 -0.502332 2.24219e-22)
(2.8563 -0.660341 -6.97837e-22)
(2.99961 -0.900307 -1.70442e-21)
(3.21568 -1.21154 2.39591e-21)
(3.51835 -1.56349 -3.81471e-21)
(3.89002 -1.87631 8.70077e-22)
(4.2377 -2.06828 -5.20638e-21)
(4.51204 -2.19616 -1.49391e-06)
(4.75092 -2.25124 -1.86088e-05)
(5.1126 -1.7827 0.373311)
(4.82891 -0.0935975 0.463048)
(3.63421 1.05453 -3.08373e-06)
(3.698 1.17326 3.33037e-06)
(3.79089 1.1236 -4.22298e-20)
(3.86491 0.941648 -6.14938e-20)
(3.91682 0.656364 2.02661e-20)
(3.95641 0.308768 -3.05293e-20)
(4.00147 -0.0458564 0)
(3.99226 -0.265639 -2.64427e-21)
(2.63352 -0.465902 -9.01382e-24)
(2.6503 -0.554213 0)
(2.69244 -0.75097 9.51466e-22)
(2.77761 -1.05168 -1.67564e-21)
(2.92401 -1.44198 -1.55728e-21)
(3.13554 -1.86701 7.49251e-21)
(3.35588 -2.16094 4.22225e-07)
(3.35611 -2.18559 -1.08817e-06)
(3.0356 -1.99215 9.52291e-07)
(2.63824 -1.80004 0.215605)
(2.11567 -1.23739 0.30536)
(0.955927 0.587645 0.534584)
(1.47606 0.773289 -1.63794e-06)
(1.92411 0.824029 8.65088e-20)
(2.29406 0.710155 5.13527e-21)
(2.60928 0.462903 0)
(2.91517 0.124662 1.52648e-20)
(3.28836 -0.246869 -1.01305e-20)
(3.51465 -0.513127 2.64352e-21)
(2.49311 -0.457175 9.00214e-24)
(2.46549 -0.558309 3.57162e-23)
(2.4457 -0.782801 5.92211e-23)
(2.45461 -1.12821 3.08334e-22)
(2.49755 -1.57324 1.60982e-21)
(2.5703 -2.01891 -6.20559e-21)
(2.56746 -2.14171 -4.23993e-07)
(2.4181 -1.94504 0.0898993)
(1.69636 -1.32616 0.116603)
(0.644247 -0.507702 0.149208)
(0.00578167 -0.017755 0.460392)
(0.338582 0.243748 1.64798e-06)
(0.753842 0.361848 -3.32692e-22)
(1.18808 0.289227 -2.54531e-20)
(1.6393 0.0476926 1.77892e-20)
(2.13946 -0.327768 -5.03788e-21)
(2.76987 -0.794177 1.77784e-20)
(3.18498 -1.28809 -3.87285e-21)
(2.37631 -0.403376 3.78485e-23)
(2.3012 -0.508228 -7.15559e-23)
(2.21088 -0.740651 -4.06582e-22)
(2.12144 -1.09969 5.03223e-22)
(2.01925 -1.55179 -4.88538e-23)
(1.90595 -1.93769 9.51143e-08)
(1.82509 -1.92355 0.0276943)
(1.25954 -1.2196 0.0521744)
(0.201687 -0.168453 0.0399652)
(-0.0070767 -0.0396786 0.325953)
(-0.0095968 -0.0122163 -6.82256e-06)
(0.29117 -0.0186237 -5.45133e-21)
(0.711178 -0.173751 0)
(1.22551 -0.489099 1.2622e-20)
(1.83807 -0.956999 0)
(2.59617 -1.56266 -2.52189e-21)
(3.12869 -2.34449 1.31314e-21)
(2.36615 -0.305817 8.55772e-23)
(2.24474 -0.399266 1.58046e-23)
(2.07861 -0.608404 5.53708e-23)
(1.87209 -0.93459 -2.45028e-21)
(1.59458 -1.34194 -1.8989e-07)
(1.22797 -1.63239 -1.2158e-08)
(0.986324 -1.42527 -0.012096)
(0.25735 -0.356282 0.0170537)
(-0.00239985 -0.00036193 0.309795)
(0.0510853 -0.157967 -9.9663e-06)
(0.360806 -0.357643 0)
(0.808498 -0.657117 4.11188e-20)
(1.36326 -1.08422 -3.08386e-20)
(2.01262 -1.65566 1.99419e-20)
(2.75635 -2.3798 5.13651e-21)
(3.31888 -3.35704 -7.78754e-21)
(2.5382 -0.169559 1.29779e-22)
(2.37941 -0.231239 -2.19504e-22)
(2.14014 -0.37459 -5.53183e-23)
(1.79824 -0.603788 0)
(1.31089 -0.896029 3.41582e-08)
(0.881746 -1.17805 -0.0551835)
(0.459248 -0.875199 -0.0493975)
(0.0121186 -0.000743363 0.397615)
(0.444274 -0.42231 -1.75173e-06)
(0.871695 -0.765996 4.40389e-20)
(1.38464 -1.17925 0)
(1.95165 -1.68763 -2.02932e-20)
(2.55759 -2.3174 -1.99176e-20)
(3.1566 -3.0856 4.97246e-21)
(3.64775 -4.09497 -1.7523e-22)
(2.96356 -0.00577553 1.48451e-22)
(2.78706 -0.0140966 -4.20821e-22)
(2.49774 -0.0431804 -1.27999e-21)
(2.04251 -0.0965704 1.01831e-20)
(1.34088 -0.19838 1.08725e-06)
(0.622256 -0.537127 -0.0816197)
(0.138895 -0.356272 -0.07761)
(0.79116 -0.507795 1.41833e-05)
(1.30742 -0.87788 3.39279e-06)
(1.84419 -1.27659 -1.10937e-20)
(2.37861 -1.72117 0)
(2.8886 -2.23294 -1.98383e-20)
(3.36085 -2.83734 0)
(3.70625 -3.54866 -2.31762e-21)
(4.02882 -4.445 -2.4756e-21)
(3.70344 0.164846 -6.35171e-23)
(3.53844 0.223722 7.88573e-22)
(3.24688 0.352894 -2.57456e-21)
(2.75152 0.586254 3.3992e-21)
(1.91128 0.881493 4.13727e-08)
(0.66031 0.461051 -0.101027)
(0.0175744 -0.0384305 -0.0701504)
(0.337952 -0.159895 0.545307)
(1.56731 -0.770475 3.88879e-06)
(2.15913 -1.10382 3.69954e-06)
(2.73683 -1.44885 5.48751e-20)
(3.26546 -1.81165 1.05684e-20)
(3.72257 -2.20068 -1.05735e-20)
(4.07919 -2.62954 1.98289e-20)
(4.32835 -3.11798 -6.54046e-21)
(4.33716 -3.67399 -2.21196e-21)
(4.41368 -4.3524 -3.5397e-21)
(4.77918 0.310505 0)
(4.66459 0.420375 0)
(4.46654 0.681074 2.41324e-23)
(4.13681 1.19857 1.68117e-21)
(3.66674 2.08122 -1.01853e-07)
(1.71343 2.32348 -0.0531972)
(0.183581 -0.112677 0.500256)
(1.36847 -0.590132 0.598113)
(2.96642 -1.18953 -7.93682e-06)
(3.60716 -1.46694 -3.77504e-06)
(4.16726 -1.72337 -5.92406e-20)
(4.64369 -1.97951 2.84063e-20)
(5.02066 -2.24036 0)
(5.28184 -2.50809 -9.68855e-21)
(5.38972 -2.78722 0)
(5.34672 -3.08865 8.74966e-21)
(4.97837 -3.41546 6.89811e-21)
(4.76827 -3.80364 3.53824e-21)
(6.09556 0.405321 0)
(6.04766 0.525673 2.19641e-23)
(6.00387 0.815594 -3.66092e-22)
(5.99612 1.37955 2.37474e-20)
(6.37444 2.21751 5.60619e-07)
(5.95475 3.79717 0.199566)
(5.21265 2.07976 0.423617)
(4.11166 -0.819613 0.728881)
(5.40935 -1.26511 2.27202e-06)
(5.70585 -1.56373 2.64941e-20)
(6.00128 -1.77435 -1.30725e-19)
(6.30294 -1.95937 2.36088e-20)
(6.56003 -2.12677 4.48123e-20)
(6.74455 -2.28167 -2.2785e-20)
(6.83156 -2.42233 0)
(6.80027 -2.54492 4.83433e-22)
(6.6026 -2.64627 -4.02378e-21)
(6.24781 -2.72685 7.81946e-21)
(5.52887 -2.78585 -2.02049e-21)
(5.05071 -2.84208 -1.40481e-21)
(7.4209 0.439577 -7.5819e-22)
(7.42681 0.537668 6.63798e-22)
(7.49358 0.771555 3.42544e-22)
(7.68196 1.17551 0)
(8.12446 1.6978 -1.19097e-20)
(8.93846 2.25555 -2.67899e-06)
(9.75279 1.20348 6.62351e-06)
(9.90931 -0.0573391 -4.0021e-06)
(9.44119 -0.837558 4.00595e-06)
(9.07209 -1.34002 0)
(8.86577 -1.69126 -2.3373e-20)
(8.73683 -1.93738 -2.22349e-20)
(8.61068 -2.10726 -4.36832e-20)
(8.44656 -2.21739 1.06573e-20)
(8.21253 -2.27374 0)
(7.88557 -2.27441 9.2062e-21)
(7.41427 -2.21365 -7.55293e-21)
(6.81207 -2.08199 2.85902e-22)
(5.85931 -1.87284 -2.9191e-21)
(5.20943 -1.58428 0)
(8.40782 0.415805 0)
(8.44441 0.481846 -4.69028e-21)
(8.55526 0.631153 4.69936e-21)
(8.77141 0.864524 1.10615e-20)
(9.1216 1.04864 4.12692e-20)
(9.69182 1.26293 -4.14033e-20)
(10.3714 0.810735 3.89892e-20)
(10.7133 0.0152462 9.01427e-21)
(10.6253 -0.650984 1.65061e-20)
(10.3677 -1.12484 5.24474e-21)
(10.0916 -1.45955 0)
(9.80684 -1.69017 2.20355e-20)
(9.48606 -1.83258 0)
(9.11292 -1.89488 0)
(8.67459 -1.87999 -9.07167e-21)
(8.16422 -1.78276 9.49618e-21)
(7.54746 -1.59192 9.05674e-21)
(6.84555 -1.28349 1.49705e-22)
(5.85811 -0.835523 -1.57691e-21)
(5.20039 -0.212791 1.28663e-21)
(8.66882 0.345886 0)
(8.72198 0.386181 0)
(8.84784 0.469095 3.79933e-21)
(9.05039 0.585099 -2.7973e-21)
(9.32672 0.642118 -1.41662e-20)
(9.7103 0.673749 8.91443e-21)
(10.154 0.416458 1.35677e-21)
(10.4234 -0.0758252 -1.6202e-20)
(10.4163 -0.561532 -1.04091e-20)
(10.2167 -0.930611 -2.5047e-20)
(9.91807 -1.18605 3.48114e-20)
(9.55292 -1.34902 -1.98212e-20)
(9.12437 -1.43008 1.93241e-20)
(8.6378 -1.43287 -2.88263e-20)
(8.10167 -1.35704 -9.07247e-21)
(7.52882 -1.19336 -8.78904e-21)
(6.91201 -0.922018 4.74725e-22)
(6.28124 -0.498329 1.15052e-20)
(5.48565 0.120547 4.78435e-21)
(5.00273 1.04117 -1.5757e-21)
(7.86688 0.246526 1.51176e-21)
(7.93518 0.270147 -4.3702e-21)
(8.07173 0.310474 -7.86801e-22)
(8.25895 0.35691 2.00521e-20)
(8.48304 0.362803 -6.07041e-21)
(8.74653 0.327042 -2.1957e-20)
(9.01333 0.155267 2.79165e-20)
(9.1619 -0.143628 0)
(9.11453 -0.453004 -1.75154e-20)
(8.89052 -0.690107 -1.89825e-21)
(8.54372 -0.841273 2.30989e-20)
(8.11242 -0.919133 0)
(7.6205 -0.934157 9.47267e-21)
(7.09185 -0.890821 9.43124e-21)
(6.5527 -0.78846 -2.33812e-20)
(6.03219 -0.616012 1.8299e-20)
(5.55063 -0.345732 -8.68175e-21)
(5.14061 0.0837776 -4.1043e-21)
(4.73488 0.759956 2.30601e-22)
(4.58448 1.94266 2.00026e-21)
(5.78405 0.136401 0)
(5.87027 0.14603 3.59846e-21)
(6.01111 0.155969 -3.06925e-21)
(6.17529 0.162167 0)
(6.34904 0.147767 -1.20644e-20)
(6.52388 0.107491 -5.61022e-21)
(6.66538 0.0126069 5.60744e-21)
(6.70327 -0.134711 0)
(6.58678 -0.280701 0)
(6.3241 -0.381288 9.91813e-21)
(5.95666 -0.42899 -8.81417e-21)
(5.52748 -0.435297 -2.34733e-21)
(5.07129 -0.411197 -2.38886e-21)
(4.61875 -0.36197 -1.19198e-20)
(4.19943 -0.286925 9.479e-21)
(3.84522 -0.175478 1.52538e-23)
(3.58987 -0.00027979 7.0725e-21)
(3.48877 0.301291 -4.72463e-21)
(3.5986 0.873048 -3.43961e-21)
(3.82771 2.26972 -1.52714e-22)
(2.35289 0.0401324 3.41512e-22)
(2.43176 0.0405965 -8.37267e-22)
(2.52733 0.0381312 0)
(2.61953 0.0337893 3.2841e-21)
(2.70579 0.0246096 -3.74435e-21)
(2.77974 0.00883993 4.28101e-21)
(2.81644 -0.0182615 0)
(2.78311 -0.0559938 1.81055e-21)
(2.66392 -0.0874439 -1.8094e-21)
(2.47408 -0.101912 0)
(2.24546 -0.10075 0)
(2.00714 -0.090378 -2.35488e-21)
(1.77859 -0.0754299 6.93223e-21)
(1.57325 -0.0573614 7.02483e-21)
(1.40288 -0.0347747 -4.69942e-21)
(1.28278 -0.00200723 0)
(1.24127 0.0547289 4.63736e-21)
(1.35572 0.171006 -2.33119e-21)
(1.80506 0.443885 -6.64161e-22)
(2.02394 1.18562 1.98057e-21)
(5.05122 -0.962444 0.416114)
(3.94234 -1.67495 0.327093)
(2.23958 -0.324516 0.433977)
(5.1126 -1.78284 -0.37333)
(5.05123 -0.961172 -0.415926)
(3.94216 -1.67477 -0.326896)
(2.23694 -0.319334 -0.430836)
(4.54738 0.558165 0.503798)
(1.95421 0.0552236 0.433091)
(2.7494 0.735699 0.543291)
(4.82842 -0.0923393 -0.462957)
(4.54663 0.559 -0.503796)
(1.95009 0.0572612 -0.433826)
(2.74828 0.736016 -0.54333)
(2.23025 -1.50168 0.226615)
(1.39986 -1.01912 0.155331)
(2.63714 -1.80046 -0.215621)
(2.22862 -1.50296 -0.226972)
(1.39896 -1.01893 -0.155363)
(0.770909 -0.15014 0.131394)
(2.11745 -1.23893 -0.30498)
(0.773209 -0.148567 -0.130918)
(0.954215 0.48419 0.600286)
(0.0349605 0.0077029 0.337495)
(0.953918 0.484078 -0.600416)
(0.0352041 0.00789545 -0.335746)
(1.31602 0.711758 0.537696)
(0.281359 0.199711 0.490869)
(0.61663 0.374451 0.518055)
(0.955942 0.587697 -0.534511)
(1.316 0.711817 -0.537698)
(0.281615 0.199883 -0.490391)
(0.616752 0.374549 -0.51788)
(1.05605 -0.780546 0.127068)
(0.566401 -0.504026 0.0810892)
(1.69636 -1.32625 -0.116588)
(1.05572 -0.779881 -0.127042)
(0.56579 -0.50397 -0.0810373)
(0.64391 -0.50745 -0.149193)
(-0.00368348 -0.0194733 0.124939)
(-0.00355042 -0.0194041 -0.124095)
(0.165157 0.075955 0.508156)
(-0.00344658 -0.0428763 0.350699)
(0.0275412 -0.0255499 0.507591)
(0.00594083 -0.0178046 -0.459823)
(0.165201 0.0759628 -0.508104)
(-0.00345357 -0.0428781 -0.350964)
(0.0275664 -0.0255265 -0.507486)
(0.544722 -0.467863 0.0899942)
(0.478488 -0.562785 0.0169025)
(1.25944 -1.21949 -0.0521714)
(0.544588 -0.467801 -0.0899814)
(0.478441 -0.562654 -0.0169102)
(0.201555 -0.16841 -0.0399619)
(-0.0513791 -0.0790976 0.486823)
(-0.00346262 -0.00805099 0.310472)
(-0.0525979 -0.0480972 0.479023)
(-0.0071032 -0.0397084 -0.32603)
(-0.0513407 -0.0790863 -0.486502)
(-0.00345387 -0.00809064 -0.310367)
(-0.0525189 -0.0480967 -0.478568)
(0.586576 -0.804217 0.0175856)
(0.629363 -1.10183 -0.031914)
(0.0608044 -0.137334 -0.012786)
(0.986416 -1.42521 0.0120944)
(0.586566 -0.803823 -0.0176096)
(0.629262 -1.10169 0.0319075)
(0.060735 -0.137681 0.0128015)
(0.257305 -0.356119 -0.0170616)
(-0.0297486 -0.0424001 0.482494)
(0.000540353 0.0108989 0.36541)
(0.00159346 -0.0340933 0.494151)
(-0.00238589 -0.000349217 -0.309707)
(-0.0296876 -0.0424074 -0.482202)
(0.000571152 0.0109057 -0.366473)
(0.00162913 -0.0340896 -0.494273)
(0.209574 -0.473291 -0.06896)
(0.459197 -0.874897 0.0493929)
(0.21003 -0.472703 0.0688814)
(0.0467341 -0.033338 0.549813)
(0.0467472 -0.0333486 -0.549714)
(0.123997 -0.118358 0.506047)
(0.134 -0.132736 0.498811)
(0.261624 -0.221105 0.529077)
(0.0121605 -0.000763562 -0.396736)
(0.12403 -0.118358 -0.505948)
(0.134012 -0.132724 -0.498708)
(0.261645 -0.221112 -0.529032)
(0.301514 -0.546816 -0.0821972)
(0.563659 -0.184633 -0.0879739)
(0.192658 -0.278216 -0.0927648)
(0.622107 -0.537206 0.0816198)
(0.301351 -0.546779 0.0821882)
(0.563435 -0.184704 0.0879635)
(0.192402 -0.278156 0.0927563)
(0.0248385 -0.0922209 -0.0843812)
(0.139431 -0.356033 0.0773783)
(0.0247011 -0.0918412 0.0843489)
(0.0670293 -0.0172139 0.249018)
(0.28254 -0.14944 0.569135)
(0.0669583 -0.0171526 -0.24862)
(0.28251 -0.149551 -0.569087)
(0.25233 -0.165834 0.537045)
(0.405822 -0.26122 0.529307)
(0.581437 -0.36782 0.558541)
(0.25231 -0.16583 -0.537035)
(0.405735 -0.261225 -0.529316)
(0.581402 -0.367819 -0.558544)
(0.0938733 -0.0394691 -0.105106)
(0.858367 1.16269 -0.0861459)
(0.0485492 0.288473 -0.107765)
(0.660091 0.460988 0.101012)
(0.0936894 -0.0393392 0.105157)
(0.858155 1.16255 0.0861415)
(0.0485384 0.288292 0.107787)
(0.0175574 -0.0381506 0.0694)
(0.353397 -0.159716 0.596291)
(0.353491 -0.159865 -0.596042)
(0.107979 -0.0800746 0.481297)
(0.510016 -0.249376 0.586876)
(0.712053 -0.327062 0.570984)
(0.107949 -0.0800426 -0.48134)
(0.509902 -0.249435 -0.586897)
(0.711992 -0.327044 -0.57097)
(0.696886 -0.340497 0.567329)
(1.02136 -0.507647 0.579743)
(1.30021 -0.631579 0.588941)
(0.33789 -0.159773 -0.545289)
(0.696846 -0.340496 -0.567331)
(1.0213 -0.507601 -0.579745)
(1.30017 -0.631568 -0.588942)
(0.118141 0.535422 -0.101785)
(3.33812 3.42966 0.0568426)
(1.95725 2.46712 0.213502)
(1.71291 2.32328 0.0531884)
(0.118115 0.535064 0.101833)
(3.33804 3.42967 -0.0568252)
(1.95833 2.46752 -0.213839)
(1.00887 -0.325335 0.819464)
(1.0094 -0.32557 -0.819265)
(0.0757345 -0.0310437 0.213596)
(1.34703 -0.553758 0.781928)
(1.45551 -0.514902 0.705113)
(0.0756931 -0.0310254 -0.213616)
(1.3473 -0.554172 -0.78153)
(1.45525 -0.514913 -0.705127)
(0.931125 -0.391979 0.621922)
(1.79679 -0.715418 0.687383)
(2.18308 -0.800764 0.66347)
(0.183522 -0.11263 -0.500263)
(0.931058 -0.391893 -0.621894)
(1.79665 -0.715395 -0.687365)
(2.18302 -0.800746 -0.663464)
(4.02352 -0.278676 0.728201)
(7.9726 1.97674 0.534909)
(7.47476 0.538217 0.658438)
(5.21053 2.07841 -0.424712)
(4.02432 -0.278793 -0.727821)
(7.9726 1.97668 -0.534919)
(7.47489 0.538227 -0.658365)
(0.498616 -0.314522 0.000343683)
(2.11837 -1.2393 -0.000147723)
(1.59779 -0.845405 0.325535)
(1.15677 -0.773847 0.228446)
(1.5949 -0.843253 0.000702128)
(1.16024 -0.776314 -0.000727956)
(0.497453 -0.31438 0.112704)
(0.571963 0.189406 0.241669)
(0.571083 0.190064 -2.52715e-05)
(2.13979 -1.65818 0.0997021)
(1.89866 -1.64208 0.0681599)
(1.42542 -1.18456 0.0806057)
(2.41801 -1.94506 -0.0899007)
(2.13969 -1.65823 -0.0997072)
(1.89852 -1.64203 -0.0681593)
(1.42518 -1.18454 -0.0806089)
(0.645065 -0.508678 8.20829e-05)
(0.294811 -0.186045 0.0823846)
(0.223746 -0.212823 0.04095)
(0.295123 -0.18602 9.16283e-05)
(0.223814 -0.213412 -7.86136e-05)
(0.0351428 -0.0200564 6.60888e-05)
(0.00585571 -0.0175868 -6.79248e-05)
(0.0772782 0.0141688 0.53526)
(0.00483956 -0.0262332 0.434486)
(0.0774997 0.0144359 -1.33582e-05)
(0.00495908 -0.0259673 2.8486e-05)
(0.0350958 -0.0201523 0.517845)
(1.62035 -1.66296 0.0394739)
(1.43361 -1.72382 0.00715745)
(1.11505 -1.32882 0.0197015)
(1.82511 -1.92348 -0.0276943)
(1.62032 -1.66284 -0.0394736)
(1.43367 -1.72374 -0.00715686)
(1.11505 -1.32864 -0.0197016)
(0.201421 -0.168258 5.29524e-05)
(-0.0200147 -0.0594761 1.45502e-05)
(-0.00707904 -0.0397004 -1.35494e-06)
(-0.0216699 -0.0761281 0.458457)
(-0.0054199 -0.0284633 0.316672)
(-0.0216647 -0.0761257 -7.12981e-06)
(-0.0053866 -0.0284639 3.42658e-06)
(-0.0200349 -0.0595309 0.44396)
(0.257259 -0.356183 0.000151458)
(0.108014 -0.186713 -0.00518682)
(0.107928 -0.187034 -5.12716e-05)
(-0.00961044 -0.00154566 -3.29713e-07)
(-0.00236704 -0.000355082 -2.34739e-07)
(-0.010515 -0.0107986 0.433946)
(-0.00262203 0.00550041 0.31602)
(-0.0104812 -0.0108101 6.57476e-06)
(-0.00260745 0.00551226 -9.44949e-07)
(-0.00962714 -0.00154074 0.44484)
(0.650656 -1.12273 -0.0531412)
(0.723641 -0.926696 -0.0668646)
(0.461407 -0.852503 -0.0664412)
(0.881784 -1.17805 0.0551855)
(0.650731 -1.12264 0.0531362)
(0.723672 -0.926753 0.0668647)
(0.461594 -0.852457 0.0664294)
(0.169896 -0.405363 -8.33545e-05)
(0.459891 -0.875615 4.39508e-05)
(0.320186 -0.650456 -0.03611)
(0.344376 -0.725186 -0.0614358)
(0.320384 -0.650863 0.000198779)
(0.344404 -0.725259 -7.84864e-05)
(0.170128 -0.405256 -0.0576489)
(0.0625907 -0.0559344 9.44665e-06)
(0.0121501 -0.000796419 1.5421e-05)
(0.0417002 -0.0208116 0.487927)
(0.0133989 -0.0194234 0.462742)
(0.041702 -0.0207524 3.11394e-05)
(0.013348 -0.0194937 -2.28603e-05)
(0.0625343 -0.0558349 0.530933)
(0.0132496 -0.063809 -8.13103e-05)
(0.139335 -0.35638 8.29091e-05)
(0.0456607 -0.148494 -0.0460054)
(0.0621527 -0.223954 -0.0964425)
(0.0457955 -0.148464 0.000133074)
(0.0615895 -0.223663 -0.000201115)
(0.0134377 -0.06377 -0.0245405)
(0.149949 -0.121032 -6.82505e-05)
(0.0566889 -0.0503726 0.237567)
(0.0899602 -0.0718358 0.39522)
(0.0567215 -0.0505463 6.63606e-06)
(0.089862 -0.0718096 -3.83605e-05)
(0.14985 -0.120819 0.542364)
(0.0174368 -0.0380961 7.03695e-06)
(0.00692608 0.00922371 -0.0310338)
(0.0067755 0.00933102 2.91313e-07)
(0.0951802 -0.0453769 1.8683e-06)
(0.0443928 -0.0173552 0.182253)
(0.0445054 -0.0172876 -3.13091e-05)
(0.0951729 -0.045681 0.428577)
(0.105186 -0.0324557 -4.89725e-05)
(0.105149 -0.032708 0.230061)
(0.714838 -0.354152 -0.000211709)
(0.183651 -0.113124 1.42661e-06)
(0.279812 -0.138084 0.655216)
(0.56367 -0.301905 0.665577)
(0.279789 -0.138495 5.97455e-05)
(0.563272 -0.302281 -0.000104824)
(0.714831 -0.35359 0.715479)
(1.72817 -0.751682 0.617471)
(2.59433 -1.02001 0.629109)
(2.89555 -1.1426 0.629951)
(1.36843 -0.590134 -0.598095)
(1.72815 -0.751703 -0.617445)
(2.59427 -1.02001 -0.629131)
(2.89551 -1.14262 -0.629959)
(5.88572 4.21184 0.389867)
(7.29909 3.36602 0.282613)
(7.70269 3.35556 0.388923)
(5.95486 3.79703 -0.199522)
(5.88593 4.21058 -0.389912)
(7.29913 3.36591 -0.282607)
(7.7027 3.35496 -0.388949)
(5.79018 1.03424 -0.000279493)
(5.2254 2.07822 -0.00091004)
(3.9783 0.74896 0.781057)
(6.29517 2.33149 0.593515)
(3.99081 0.741723 0.0020454)
(6.29954 2.33225 -0.000192259)
(5.78508 1.0422 0.70569)
(4.06987 -0.977585 0.731781)
(6.97671 -0.392023 0.688125)
(6.63474 -0.893371 0.693072)
(4.11219 -0.819845 -0.728617)
(4.07002 -0.977738 -0.731668)
(6.97691 -0.392138 -0.688105)
(6.63487 -0.893495 -0.69307)
(3.9014 -1.07184 -0.000446368)
(2.24085 -0.32058 0.000755131)
(3.58069 -0.471169 0.451824)
(2.99609 -0.948068 0.329959)
(3.58131 -0.468233 0.000203369)
(2.99833 -0.948178 -0.000953244)
(3.89985 -1.0704 0.409162)
(3.90132 -1.07097 0.000453164)
(2.23904 -0.318239 -0.000133223)
(3.57945 -0.467341 -0.451401)
(2.99511 -0.946774 -0.32981)
(3.58057 -0.466495 0.000129525)
(2.99774 -0.947473 0.000768684)
(3.89978 -1.06887 -0.409088)
(3.15725 0.301635 -0.000116671)
(1.95082 0.0579687 0.000222936)
(3.29581 0.0143957 0.470922)
(1.87575 0.349058 0.51761)
(3.29429 0.0166802 -0.000118506)
(1.87317 0.350614 -0.000166609)
(3.15807 0.300846 0.532381)
(3.15631 0.302341 0.000292479)
(1.94888 0.0590058 -9.8635e-05)
(3.29361 0.0165562 -0.471053)
(1.87319 0.349838 -0.517884)
(3.29326 0.017735 0.00029815)
(1.87197 0.350998 0.000293894)
(3.15605 0.302254 -0.532574)
(0.846667 -0.751603 0.000195693)
(0.591635 -0.458156 0.132247)
(0.316765 -0.302682 0.0601127)
(0.589042 -0.458438 -0.000389204)
(0.316193 -0.303281 -4.70913e-05)
(0.849338 -0.750974 0.197011)
(0.845336 -0.751479 -0.000448385)
(0.588209 -0.458558 -0.132275)
(0.31595 -0.302353 -0.0601104)
(0.587182 -0.458635 7.31431e-05)
(0.315783 -0.303096 1.11829e-05)
(0.846701 -0.750869 -0.196931)
(0.773254 -0.148712 0.000239556)
(1.4038 -0.509341 0.210778)
(1.40196 -0.50656 -0.000873943)
(0.256086 -0.168116 0.0613364)
(0.254987 -0.167579 -0.000279796)
(0.499431 -0.313676 0.000123414)
(2.1185 -1.24018 -0.000318278)
(1.59576 -0.840393 -0.326428)
(1.16166 -0.778485 -0.227232)
(1.59326 -0.840653 -0.000605536)
(1.16257 -0.77872 0.000174858)
(0.499092 -0.312734 -0.112646)
(0.774127 -0.148255 3.35985e-05)
(1.39966 -0.505932 -0.211634)
(1.3992 -0.505407 0.000314105)
(0.252911 -0.167795 -0.0602663)
(0.253277 -0.167445 -0.000169735)
(0.172097 0.126336 4.01666e-06)
(0.954304 0.485016 -0.000259339)
(0.771705 0.380137 0.541264)
(0.295202 0.219862 0.580734)
(0.770949 0.380846 -0.000159966)
(0.295224 0.220551 8.97284e-05)
(0.172078 0.125793 0.257874)
(0.0350271 0.00804385 4.80938e-05)
(0.0942947 0.0638673 0.450661)
(0.0943966 0.0640955 -6.70209e-05)
(0.571205 0.189379 -0.241797)
(0.570742 0.190053 9.0519e-06)
(0.172082 0.126325 -6.73954e-06)
(0.954076 0.484971 0.000286627)
(0.7714 0.380063 -0.541456)
(0.29515 0.219727 -0.580871)
(0.770754 0.380801 0.000175142)
(0.295203 0.220535 -8.36902e-05)
(0.172032 0.125736 -0.257914)
(0.0350857 0.00809293 -7.65357e-05)
(0.094364 0.0637813 -0.450899)
(0.0944269 0.0641069 6.85139e-05)
(0.826138 -0.722624 0.000114914)
(0.565399 -0.504094 -8.12618e-05)
(1.03364 -0.893971 0.107996)
(0.357921 -0.323961 0.050374)
(1.03352 -0.894626 0.000168602)
(0.35755 -0.324756 -0.000180419)
(0.826552 -0.721486 0.0981844)
(0.52373 -0.40225 3.10857e-05)
(0.228328 -0.147717 0.0612728)
(0.143135 -0.111021 0.0279964)
(0.228638 -0.147505 0.000175024)
(0.143299 -0.111193 -3.58353e-05)
(0.523144 -0.401703 0.105463)
(0.826101 -0.722871 -0.000164019)
(0.565083 -0.504055 3.19187e-05)
(1.03332 -0.894191 -0.107949)
(0.357268 -0.324093 -0.0503021)
(1.03334 -0.894723 -0.000196922)
(0.35721 -0.324816 0.000103513)
(0.826538 -0.722023 -0.0980896)
(0.524163 -0.40273 -5.60544e-05)
(0.228587 -0.147498 -0.0613198)
(0.142849 -0.11124 -0.0278647)
(0.228735 -0.147364 -2.24099e-05)
(0.14314 -0.111299 -5.25308e-05)
(0.524133 -0.402741 -0.105332)
(0.644748 -0.508428 -0.000112172)
(0.294658 -0.185956 -0.0823885)
(0.223635 -0.212721 -0.0409512)
(0.294961 -0.185926 -0.000108988)
(0.223693 -0.213291 6.86593e-05)
(-0.00367279 -0.0194962 -1.38017e-05)
(-0.00364561 -0.0194879 -2.10631e-06)
(0.000821811 -0.060586 -1.9661e-05)
(-0.003434 -0.0428958 1.02157e-05)
(-0.00305803 -0.0394469 0.385157)
(-0.00447756 -0.0737527 0.486906)
(-0.00307417 -0.0394619 -1.26549e-06)
(-0.00448734 -0.0737535 2.43012e-05)
(0.000823682 -0.0604951 0.507464)
(0.0351706 -0.0200424 -6.18294e-05)
(0.00589983 -0.0175937 6.91793e-05)
(0.0773618 0.0141638 -0.535197)
(0.00488571 -0.0262212 -0.434636)
(0.0775671 0.0144592 9.08041e-06)
(0.00497252 -0.0259659 -2.41664e-05)
(0.0351335 -0.0201318 -0.517913)
(0.000834924 -0.0605799 2.41926e-05)
(-0.00343341 -0.0429026 -6.77084e-06)
(-0.00305206 -0.03945 -0.385276)
(-0.00448562 -0.0737463 -0.487002)
(-0.00307137 -0.0394661 5.57242e-06)
(-0.0044787 -0.0737604 -2.01404e-05)
(0.000832139 -0.0604859 -0.507529)
(0.521602 -0.48141 -0.000129958)
(0.545102 -0.46831 0.000195251)
(0.873062 -0.776954 0.0783193)
(0.196716 -0.174423 0.0291545)
(0.8738 -0.777578 6.00092e-05)
(0.197081 -0.1748 -6.3625e-07)
(0.521327 -0.481256 0.0476997)
(0.494121 -0.530811 0.000152734)
(0.478651 -0.562283 -0.000228034)
(0.784858 -0.871223 0.0377681)
(0.175639 -0.202819 0.013722)
(0.78539 -0.871817 1.10944e-05)
(0.175982 -0.203105 -6.86232e-06)
(0.494014 -0.530499 0.0467105)
(0.245192 -0.242725 7.1518e-06)
(0.245358 -0.242898 0.0178601)
(0.521566 -0.481377 0.000125253)
(0.54502 -0.468263 -0.000206391)
(0.872924 -0.776875 -0.0783033)
(0.196702 -0.174418 -0.0291529)
(0.873709 -0.777517 -6.944e-05)
(0.197072 -0.174794 -1.78918e-06)
(0.521264 -0.481204 -0.0476944)
(0.4941 -0.53078 -0.000150691)
(0.478619 -0.562218 0.000234986)
(0.784809 -0.871091 -0.0377729)
(0.175629 -0.202798 -0.0137241)
(0.785352 -0.871738 -6.74121e-06)
(0.175976 -0.203095 7.88024e-06)
(0.493979 -0.530444 -0.0467145)
(0.245175 -0.242706 -8.19052e-06)
(0.245324 -0.242864 -0.0178594)
(0.201356 -0.168235 -5.97729e-05)
(-0.0181576 -0.0401008 6.67615e-06)
(-0.00342824 -0.00807013 -5.38611e-06)
(-0.00433452 -0.0176704 0.312978)
(-0.0152923 -0.0238143 0.433328)
(-0.00429515 -0.0177124 -2.58131e-07)
(-0.0152509 -0.0238423 -3.4022e-06)
(-0.0181883 -0.0400563 0.437026)
(-0.0200215 -0.059519 -1.35426e-05)
(-0.00708965 -0.0397289 1.22314e-05)
(-0.0217065 -0.0761354 -0.458411)
(-0.00544047 -0.0285441 -0.316521)
(-0.0216669 -0.0761509 1.52764e-05)
(-0.00540287 -0.028518 1.15439e-06)
(-0.0200629 -0.0595825 -0.443719)
(-0.0181622 -0.040125 -1.29437e-05)
(-0.00343805 -0.00808123 -3.06691e-07)
(-0.00434399 -0.017755 -0.312858)
(-0.015257 -0.0238361 -0.433041)
(-0.00431312 -0.0177535 7.63771e-07)
(-0.0152413 -0.0238311 -6.86168e-06)
(-0.0181928 -0.0401186 -0.43675)
(0.587606 -0.914669 -8.62693e-05)
(0.58717 -0.804726 0.000268081)
(0.785128 -1.08887 0.00318901)
(0.317811 -0.519487 -0.0100519)
(0.786138 -1.08939 7.58717e-05)
(0.317668 -0.519325 -5.82824e-05)
(0.587276 -0.914556 -0.0142713)
(0.412533 -0.692404 0.000104434)
(0.060786 -0.137802 -6.78803e-05)
(0.191349 -0.331278 -0.00434182)
(0.214312 -0.441375 -0.044458)
(0.191601 -0.331188 0.00021647)
(0.213853 -0.441123 -0.000252338)
(0.411784 -0.692189 -0.0199995)
(0.587709 -0.914617 0.000114334)
(0.587157 -0.804574 -0.000245963)
(0.785273 -1.08861 -0.00320603)
(0.3178 -0.519062 0.00999561)
(0.786184 -1.08928 -5.82177e-05)
(0.317671 -0.519195 0.000112336)
(0.587558 -0.914419 0.014237)
(0.41265 -0.692476 -5.92162e-05)
(0.0608409 -0.138037 2.48821e-05)
(0.191443 -0.331335 0.00422237)
(0.213833 -0.441202 0.0445178)
(0.19166 -0.331249 -0.00012551)
(0.213723 -0.441074 0.000171703)
(0.412091 -0.692351 0.0199436)
(0.257238 -0.35612 -0.000145463)
(0.107967 -0.186558 0.00517846)
(0.107909 -0.186977 6.03597e-05)
(-0.00410623 0.00480723 1.19108e-05)
(0.000515461 0.0109384 -6.66536e-06)
(-0.00165923 0.00972564 0.338593)
(0.00439985 0.00645689 0.483114)
(-0.00164976 0.00971972 3.84572e-06)
(0.00439354 0.0065396 -2.37104e-05)
(-0.00410875 0.00485165 0.468379)
(-0.00959787 -0.00153554 -2.0243e-06)
(-0.00237118 -0.000349581 -2.1741e-06)
(-0.0104763 -0.0107941 -0.433736)
(-0.00261555 0.00551946 -0.316078)
(-0.0104709 -0.0108021 -1.03772e-05)
(-0.00260979 0.00551909 9.16283e-07)
(-0.00960006 -0.00152586 -0.444835)
(-0.00409393 0.00482102 -1.13025e-05)
(0.000524978 0.0109367 2.53794e-06)
(-0.00165139 0.00972871 -0.338892)
(0.00445023 0.00647362 -0.483968)
(-0.0016483 0.00972609 -3.97553e-06)
(0.0044135 0.00654415 2.34244e-05)
(-0.00408218 0.00486521 -0.468573)
(0.0464185 -0.126661 -4.26995e-05)
(0.128922 -0.294908 -0.0279338)
(0.128483 -0.29464 8.6047e-05)
(0.0465755 -0.126453 -0.0193409)
(0.122745 -0.274132 6.92308e-05)
(0.210047 -0.472971 1.9157e-05)
(0.271757 -0.569475 -0.064888)
(0.0808494 -0.200321 -0.0479122)
(0.272118 -0.569057 1.78695e-05)
(0.0811225 -0.199993 7.59682e-05)
(0.122609 -0.27463 -0.0499363)
(0.16983 -0.405171 8.13704e-05)
(0.459878 -0.875466 -4.0806e-05)
(0.320043 -0.65017 0.0361073)
(0.34439 -0.72477 0.0614292)
(0.320342 -0.650733 -0.000196993)
(0.344416 -0.725063 8.74466e-05)
(0.169965 -0.404814 0.0576476)
(0.0463853 -0.126615 3.30537e-05)
(0.12872 -0.294674 0.0279336)
(0.128421 -0.294549 -8.95174e-05)
(0.0464935 -0.12633 0.0193421)
(0.122758 -0.273886 -4.85476e-05)
(0.210264 -0.472676 4.22277e-05)
(0.27196 -0.568934 0.0648618)
(0.0810235 -0.199605 0.0477968)
(0.272219 -0.568803 1.21883e-05)
(0.0812067 -0.199644 7.11924e-06)
(0.122629 -0.274081 0.0499221)
(-3.76663e-06 -0.000110094 0.145634)
(-5.19887e-05 -7.06119e-05 4.85077e-06)
(0.0470193 -0.0337187 -6.42677e-06)
(0.0170777 -0.0162911 0.383252)
(0.0295166 -0.0137868 0.235219)
(0.0170796 -0.0164728 6.34714e-05)
(0.0296432 -0.0138226 -2.30646e-05)