/*--------------------------------*- C++ -*----------------------------------*\
  =========                 |
  \\      /  F ield         | OpenFOAM: The Open Source CFD Toolbox
   \\    /   O peration     | Website:  https://openfoam.org
    \\  /    A nd           | Version:  7
     \\/     M anipulation  |
\*---------------------------------------------------------------------------*/
FoamFile
{
    version     2.0;
    format      ascii;
    class       volScalarField;
    location    "0.5";
    object      p;
}
// * * * * * * * * * * * * * * * * * * * * * * * * * * * * * * * * * * * * * //

dimensions      [0 2 -2 0 0 0 0];

internalField   nonuniform List<scalar> 
733
(
-0.0702682
-0.0646168
-0.0503362
-0.0339948
-0.0219822
-0.015748
-0.0152136
-0.0193564
-0.0271677
-0.0382399
-0.0531227
-0.0736721
-0.105559
-0.199583
-0.073254
-0.0714411
-0.0575942
-0.0419728
-0.0294999
-0.0224114
-0.0209081
-0.0241255
-0.0311325
-0.0414124
-0.0550252
-0.0725914
-0.0942611
-0.123068
-0.0931083
-0.0848734
-0.0665133
-0.0486767
-0.0345832
-0.0264045
-0.0240258
-0.0262637
-0.0319281
-0.0401622
-0.0503538
-0.0618534
-0.0730512
-0.080882
-0.14097
-0.102307
-0.075912
-0.0550176
-0.0394762
-0.0303708
-0.0270844
-0.0281065
-0.032022
-0.0377451
-0.044349
-0.0508098
-0.0556312
-0.0556948
-0.00204011
-0.0133708
-0.0266308
-0.0407771
-0.0560808
-0.0731658
-0.141535
-0.101496
-0.0766926
-0.0568314
-0.0422035
-0.0334055
-0.0296941
-0.0296213
-0.0318332
-0.0352552
-0.038955
-0.0419861
-0.0433102
-0.0405227
-0.0060032
-0.0189169
-0.0329945
-0.0483107
-0.0652502
-0.0821548
-0.0910013
-0.0832318
-0.0678328
-0.0529717
-0.0416396
-0.034522
-0.031092
-0.0303285
-0.0312024
-0.0328286
-0.0344189
-0.035231
-0.0346187
-0.0308736
-0.00561884
-0.0174962
-0.0300463
-0.0428471
-0.0554301
-0.0662884
-0.0716349
-0.06774
-0.0581455
-0.0479651
-0.0398811
-0.0345105
-0.0315505
-0.0303746
-0.0302816
-0.0306039
-0.0307233
-0.0300903
-0.0283292
-0.024172
-0.00502752
-0.0153619
-0.0258508
-0.0359917
-0.0452026
-0.0524603
-0.056083
-0.0544786
-0.049139
-0.0428887
-0.0375639
-0.0337437
-0.0313445
-0.0300192
-0.0293137
-0.0287511
-0.0278684
-0.0262683
-0.0237479
-0.0192472
-0.0044113
-0.0132195
-0.021823
-0.0298617
-0.0368674
-0.0421932
-0.0450574
-0.0448584
-0.042263
-0.0387301
-0.0354163
-0.0328124
-0.0309505
-0.0296417
-0.0285893
-0.027456
-0.0258974
-0.0236222
-0.0205347
-0.015636
-0.00386144
-0.011378
-0.0184966
-0.0250393
-0.0306812
-0.0350066
-0.0376187
-0.0382985
-0.0373814
-0.0356312
-0.0337468
-0.0320902
-0.0307266
-0.0295478
-0.0283495
-0.0268832
-0.0248828
-0.02212
-0.0185651
-0.013194
-0.00340636
-0.00990683
-0.0159346
-0.0214543
-0.0262482
-0.0300385
-0.0326096
-0.0338827
-0.0340437
-0.0335022
-0.0326685
-0.0317838
-0.0309043
-0.0299567
-0.0287834
-0.0271836
-0.0249296
-0.021818
-0.0178561
-0.0119323
-0.00304214
-0.00876977
-0.0140199
-0.0188487
-0.0231145
-0.0266247
-0.0292527
-0.03097
-0.0318842
-0.0322188
-0.0322087
-0.0320014
-0.0316281
-0.0310226
-0.0300438
-0.0285055
-0.0261838
-0.0228594
-0.0185418
-0.011971
-0.00275587
-0.00790671
-0.0126121
-0.0169812
-0.0209246
-0.0243048
-0.0270419
-0.029126
-0.0306204
-0.0316485
-0.0323418
-0.0327822
-0.0329742
-0.0328454
-0.0322523
-0.0309991
-0.0288343
-0.0254821
-0.0208867
-0.0135556
-0.00253451
-0.00726146
-0.0115916
-0.0156608
-0.0194159
-0.0227578
-0.0256351
-0.0280467
-0.0300318
-0.0316606
-0.0330061
-0.0341101
-0.0349583
-0.0354709
-0.0354926
-0.0348135
-0.0331026
-0.0299742
-0.0253085
-0.01715
-0.00236683
-0.006787
-0.0108637
-0.0147434
-0.0183982
-0.0217588
-0.0247952
-0.0275131
-0.0299414
-0.0321244
-0.0341071
-0.0359137
-0.0375269
-0.0388699
-0.0397747
-0.0400749
-0.0392929
-0.0369077
-0.0325571
-0.0236879
-0.00224348
-0.00644719
-0.0103592
-0.0141263
-0.0177387
-0.0211524
-0.0243559
-0.0273627
-0.0301997
-0.0329032
-0.0355117
-0.0380534
-0.0405296
-0.0429035
-0.045131
-0.0468033
-0.04762
-0.0468393
-0.0437157
-0.0349256
-0.00215756
-0.00621679
-0.0100324
-0.013743
-0.0173518
-0.0208369
-0.0242027
-0.0274706
-0.0306705
-0.0338416
-0.0370312
-0.0402914
-0.0436712
-0.0472649
-0.0509224
-0.0546
-0.0579653
-0.0602428
-0.0602566
-0.0540315
-0.00210435
-0.00607983
-0.00985576
-0.0135537
-0.0171851
-0.0207465
-0.0242527
-0.0277308
-0.0312144
-0.0347511
-0.0384067
-0.0422721
-0.0464751
-0.0510965
-0.0563473
-0.0623813
-0.0692287
-0.0765571
-0.0830946
-0.0852586
-0.0020838
-0.00603121
-0.00981479
-0.0135345
-0.0172067
-0.0208402
-0.0244519
-0.0280669
-0.0317189
-0.0354588
-0.0393655
-0.0435575
-0.0481903
-0.0535048
-0.0598641
-0.0677936
-0.078073
-0.0917706
-0.109447
-0.133536
-0.00210772
-0.00608713
-0.00991826
-0.0136885
-0.0174216
-0.0211275
-0.024814
-0.0284945
-0.0321912
-0.0359462
-0.0398336
-0.0439568
-0.0484902
-0.0536816
-0.0599307
-0.0679334
-0.0789824
-0.0954102
-0.123397
-0.213592
-0.0707818
-0.0707526
-0.0719712
-0.070226
-0.0707445
-0.0707059
-0.0719278
-0.0771739
-0.0851789
-0.0827735
-0.0732008
-0.0771168
-0.085085
-0.0826856
-0.0970293
-0.12174
-0.103893
-0.092994
-0.0969079
-0.1215
-0.103639
-0.130384
-0.173266
-0.131392
-0.14069
-0.130125
-0.171251
-0.130925
-0.00991173
-0.00301876
-0.00873089
-0.00204102
-0.00992016
-0.00302168
-0.00873878
-0.0229457
-0.0154504
-0.0217957
-0.0133858
-0.0229717
-0.0154648
-0.0218169
-0.0369022
-0.029147
-0.0361447
-0.0266594
-0.0369667
-0.029183
-0.0362001
-0.0520071
-0.0441971
-0.052385
-0.040853
-0.0521527
-0.044281
-0.0525087
-0.0687534
-0.0619552
-0.0729946
-0.0562664
-0.0691878
-0.0621445
-0.0732875
-0.147431
-0.0846578
-0.100289
-0.0737656
-0.150209
-0.085071
-0.100647
-0.0707646
-0.0707618
-0.069774
-0.0702599
-0.0697626
-0.0707593
-0.0707597
-0.0771997
-0.0732462
-0.0745839
-0.0761916
-0.074586
-0.076173
-0.0772099
-0.100875
-0.0930933
-0.0940571
-0.10088
-0.0940563
-0.100824
-0.100925
-0.144333
-0.140876
-0.137049
-0.157415
-0.136942
-0.157163
-0.144795
-0.00467326
-0.00453704
-0.00217947
-0.00206326
-0.00453325
-0.00467295
-0.00220572
-0.0165933
-0.0133832
-0.0165069
-0.0136495
-0.0165106
-0.0136649
-0.0165873
-0.0301675
-0.0266441
-0.0299958
-0.0270235
-0.0300028
-0.0270421
-0.0301605
-0.0448465
-0.040802
-0.0444258
-0.0413927
-0.0444446
-0.041421
-0.0448243
-0.0615799
-0.05614
-0.060127
-0.0573331
-0.0602031
-0.0573947
-0.0614887
-0.0863856
-0.0734063
-0.0809389
-0.0777073
-0.0813547
-0.0779719
-0.085867
-0.134687
-0.113381
-0.112002
-0.141209
-0.134409
-0.113286
-0.111895
-0.0706262
-0.0707331
-0.0696081
-0.0717392
-0.0695907
-0.0717259
-0.0706371
-0.0707364
-0.0702348
-0.070718
-0.0697324
-0.0697374
-0.0707313
-0.0707154
-0.0705974
-0.0707053
-0.0695653
-0.0716887
-0.0695649
-0.0716946
-0.070591
-0.0811503
-0.085131
-0.080065
-0.0853349
-0.0800473
-0.0852828
-0.0811534
-0.077159
-0.0732152
-0.074526
-0.0761285
-0.0745511
-0.0761368
-0.0771413
-0.0811025
-0.0850821
-0.0799887
-0.0852315
-0.0800055
-0.0852264
-0.0810692
-0.109395
-0.121557
-0.11009
-0.117535
-0.110012
-0.117282
-0.109442
-0.100808
-0.0930401
-0.0939318
-0.100735
-0.093998
-0.100762
-0.100768
-0.109319
-0.121478
-0.109904
-0.117237
-0.109942
-0.11718
-0.109232
-0.161037
-0.172585
-0.178168
-0.154235
-0.177971
-0.153344
-0.161367
-0.144187
-0.140807
-0.136693
-0.15703
-0.136846
-0.157072
-0.144255
-0.160755
-0.171879
-0.177404
-0.152752
-0.177772
-0.152857
-0.160412
-0.00727051
-0.00990894
-0.00700133
-0.00994578
-0.0070012
-0.00994354
-0.00726731
-0.00467567
-0.00206361
-0.00454079
-0.00217986
-0.00453534
-0.00467725
-0.0022058
-0.00727416
-0.00991411
-0.00700731
-0.00995476
-0.00700474
-0.00994903
-0.00727339
-0.0199877
-0.022947
-0.0196739
-0.0230365
-0.0196826
-0.0230387
-0.0199767
-0.0166049
-0.0133916
-0.016523
-0.0136621
-0.01652
-0.0136726
-0.0166076
-0.0199997
-0.0229626
-0.0196935
-0.0230642
-0.0196942
-0.0230559
-0.0199974
-0.033859
-0.0369126
-0.0333826
-0.0371835
-0.0333967
-0.0371965
-0.0338426
-0.0301904
-0.0266614
-0.030034
-0.0270559
-0.0300256
-0.0270613
-0.0301983
-0.0338899
-0.0369504
-0.033431
-0.0372522
-0.0334253
-0.037238
-0.0338946
-0.0489926
-0.0520406
-0.0481155
-0.0527946
-0.0481499
-0.0528368
-0.0489569
-0.0449017
-0.0408454
-0.044516
-0.0414749
-0.044495
-0.0414689
-0.0449212
-0.0490613
-0.0521151
-0.0482347
-0.0529546
-0.0482131
-0.0529215
-0.0490835
-0.0666901
-0.0689285
-0.0641218
-0.0723387
-0.0642326
-0.0725693
-0.0665696
-0.0616967
-0.0562258
-0.0603719
-0.0575373
-0.0603036
-0.0574946
-0.0617549
-0.0668282
-0.0690429
-0.0644512
-0.0728266
-0.0643476
-0.072724
-0.066934
-0.0934443
-0.14978
-0.0963509
-0.113884
-0.0970518
-0.114503
-0.0929716
-0.0866387
-0.0735328
-0.0819314
-0.0783965
-0.081527
-0.0781684
-0.0869085
-0.0937832
-0.149967
-0.098655
-0.115213
-0.0975133
-0.114481
-0.0946183
)
;

boundaryField
{
    fixedWalls
    {
        type            zeroGradient;
    }
    frontAndBack
    {
        type            empty;
    }
    right
    {
        type            fixedValue;
        value           uniform 0;
    }
    left
    {
        type            zeroGradient;
    }
    model
    {
        type            zeroGradient;
    }
}


// ************************************************************************* //
