/*--------------------------------*- C++ -*----------------------------------*\
  =========                 |
  \\      /  F ield         | OpenFOAM: The Open Source CFD Toolbox
   \\    /   O peration     | Website:  https://openfoam.org
    \\  /    A nd           | Version:  7
     \\/     M anipulation  |
\*---------------------------------------------------------------------------*/
FoamFile
{
    version     2.0;
    format      ascii;
    class       surfaceScalarField;
    location    "0.5";
    object      phi;
}
// * * * * * * * * * * * * * * * * * * * * * * * * * * * * * * * * * * * * * //

dimensions      [0 3 -1 0 0 0 0];

internalField   nonuniform List<scalar> 
1690
(
-1.30373e-07
1.30447e-07
-7.39806e-11
-6.82603e-05
1.97473e-05
1.07004e-05
1.35786e-05
1.06818e-05
1.35523e-05
-7.12196e-06
-6.11383e-05
0.000100589
-0.000107711
0.000221804
-0.000121215
0.000332885
-0.000111082
0.000425408
-9.25227e-05
0.000501781
-7.63736e-05
0.000570466
-6.86849e-05
0.000644298
-7.38315e-05
0.000743046
-9.87482e-05
0.000901775
-0.00015873
0.00120697
-0.000305195
-0.000792522
-9.79775e-07
-7.35352e-11
-2.67787e-07
1.24764e-06
2.49618e-05
-4.35378e-05
9.02086e-06
1.0187e-05
8.97925e-06
1.01361e-05
0.000193384
-0.000229561
0.00042056
-0.000334886
0.000656005
-0.00035666
0.000869938
-0.000325014
0.00105132
-0.000273907
0.0012027
-0.000227751
0.0013343
-0.000200289
0.00146007
-0.000199595
0.00159583
-0.00023451
0.00175775
-0.000320651
0.00194014
-0.000487588
-0.000851871
-2.22523e-06
-1.4276e-10
-1.22103e-07
2.34748e-06
0.000246365
-0.000246643
-8.65788e-06
-1.28376e-05
-8.756e-06
-1.3008e-05
0.000501245
-0.000484441
0.000771709
-0.000605351
0.00102922
-0.000614171
0.00125739
-0.000553182
0.00145081
-0.000467331
0.00161211
-0.000389052
0.00174836
-0.00033653
0.00186727
-0.000318508
0.00197359
-0.000340834
0.00206324
-0.000410302
0.00210969
-0.000534039
-0.000741673
-2.92651e-06
-8.99073e-10
1.02532e-06
1.90209e-06
0.000716745
-0.000577138
-7.2564e-05
-0.000120192
-7.28612e-05
-0.000120633
0.000989645
-0.000757341
0.00121899
-0.000834695
0.00141512
-0.000810299
0.00158346
-0.000721523
0.00172727
-0.000611139
0.00184916
-0.000510949
0.00195153
-0.0004389
0.00203571
-0.000402685
0.00209942
-0.000404541
0.00213347
-0.000444357
0.00211811
-0.000518679
-0.00062308
9.88288e-06
3.46767e-07
2.59142e-10
-9.76224e-06
1.17979e-10
9.7714e-06
-9.27741e-09
-9.93405e-06
1.26199e-10
9.96447e-06
-3.05497e-08
-1.02098e-05
2.36554e-10
1.02911e-05
-8.15422e-08
-1.074e-05
5.64589e-10
1.09541e-05
-2.14723e-07
-1.24261e-05
2.37084e-09
1.41209e-05
-1.69723e-06
2.51416e-05
-4.80156e-05
0.000235971
-0.000115424
-1.41327e-08
2.52381e-05
1.47938e-05
1.49124e-05
-4.81505e-05
-5.21175e-05
-5.23359e-05
0.00157394
-0.000765133
-0.000293928
-0.000399006
-0.000293989
-0.000399019
0.00169833
-0.000881732
0.00178121
-0.000917572
0.00184494
-0.000874029
0.00190299
-0.000779578
0.00196005
-0.000668204
0.0020155
-0.000566396
0.00206592
-0.000489321
0.00210656
-0.00044332
0.00213118
-0.000429166
0.00213078
-0.000443959
0.00209334
-0.000481234
-0.0005293
0.00226817
-1.98026e-05
8.73837e-08
2.27563e-06
8.82542e-08
2.27871e-06
0.00228782
-3.00049e-05
1.30673e-06
3.85767e-06
1.3112e-06
3.87559e-06
0.00232196
-5.28313e-05
3.1091e-06
6.22321e-06
3.11444e-06
6.24916e-06
0.00238143
-9.61322e-05
6.80347e-06
1.14778e-05
6.8396e-06
1.15436e-05
0.00247081
-0.000176169
1.62292e-05
2.7019e-05
1.63326e-05
2.72012e-05
0.00252741
-0.00032329
5.13986e-05
8.15898e-05
5.17441e-05
8.19634e-05
0.00250308
-0.000524781
0.000129446
0.000145068
0.000129552
0.000145046
0.00243934
-0.000701397
0.00236565
-0.000808037
0.00228785
-0.000839773
0.00222153
-0.000807713
0.00217619
-0.000734233
0.00215259
-0.000644608
0.00214531
-0.000559113
0.00214658
-0.000490595
0.00214801
-0.000444745
0.00214138
-0.000422535
0.00211886
-0.000421447
0.00207332
-0.000435692
-0.000455538
0.00291505
-3.01792e-05
0.00292787
-4.28279e-05
0.00294664
-7.15956e-05
0.00297212
-0.000121611
0.00299618
-0.000200235
0.0029884
-0.000315512
0.00292469
-0.000461067
0.0028166
-0.000593305
0.00268735
-0.00067879
0.00255666
-0.000709085
0.00244085
-0.000691899
0.00234942
-0.000642804
0.0022835
-0.000578693
0.00223852
-0.000514129
0.00220677
-0.000458848
0.00218027
-0.000418245
0.00215147
-0.00039373
0.00211402
-0.000383997
0.00206363
-0.000385302
-0.000391551
0.00316669
-3.48267e-05
0.00317135
-4.74887e-05
0.00317501
-7.52606e-05
0.00317453
-0.000121127
0.00316228
-0.000187989
0.00312367
-0.000276902
0.00304452
-0.000381911
0.00293068
-0.000479467
0.00279906
-0.000547164
0.00266642
-0.000576451
0.00254588
-0.00057136
0.0024448
-0.000541721
0.00236461
-0.00049851
0.00230227
-0.00045178
0.00225223
-0.000408816
0.00220825
-0.000374259
0.0021645
-0.000349981
0.00211644
-0.000335939
0.00206132
-0.000330184
-0.000329907
0.00320084
-3.51552e-05
0.00319973
-4.63816e-05
0.00319449
-7.00188e-05
0.00318144
-0.000108079
0.00315492
-0.000161467
0.00310735
-0.000229341
0.0030319
-0.000306457
0.00293147
-0.000379035
0.00281685
-0.00043255
0.00270051
-0.000460102
0.0025918
-0.000462654
0.00249617
-0.000446092
0.00241506
-0.000417396
0.00234669
-0.000383414
0.00228758
-0.000349707
0.00223328
-0.000319955
0.00217969
-0.000296395
0.00212366
-0.00027991
0.00206347
-0.000269991
-0.000266197
0.00314688
-3.2871e-05
0.00314263
-4.21366e-05
0.00313376
-6.1148e-05
0.00311667
-9.09858e-05
0.0030876
-0.0001324
0.00304241
-0.00018415
0.0029776
-0.000241647
0.00289496
-0.000296396
0.00280112
-0.000338709
0.00270425
-0.000363231
0.00261094
-0.000369343
0.00252523
-0.000360381
0.00244838
-0.000340541
0.00237966
-0.000314699
0.00231666
-0.000286701
0.0022565
-0.000259802
0.00219634
-0.000236238
0.00213391
-0.000217473
0.00206812
-0.0002042
-0.00019792
0.00307047
-2.92004e-05
0.00306494
-3.66087e-05
0.00305505
-5.12608e-05
0.00303825
-7.41845e-05
0.00301157
-0.000105717
0.00297241
-0.000144995
0.00291921
-0.000188443
0.00285282
-0.000230013
0.00277729
-0.000263178
0.00269781
-0.000283748
0.00261892
-0.000290451
0.00254348
-0.000284943
0.00247277
-0.000269834
0.00240627
-0.000248196
0.0023425
-0.000222932
0.00227935
-0.000196656
0.00221464
-0.00017153
0.00214659
-0.000149423
0.0020747
-0.000132305
-0.000123142
0.00299717
-2.50019e-05
0.00299135
-3.07813e-05
0.00298194
-4.18531e-05
0.00296677
-5.90129e-05
0.00294394
-8.28881e-05
0.00291151
-0.000112573
0.00286841
-0.000145334
0.00281527
-0.00017688
0.00275449
-0.000202399
0.00268924
-0.000218494
0.00262273
-0.000223941
0.00255693
-0.000219142
0.0024928
-0.000205705
0.00243006
-0.000185451
0.0023675
-0.000160381
0.00230339
-0.000132539
0.00223557
-0.000103716
0.00216254
-7.63937e-05
0.00208358
-5.33371e-05
-3.96049e-05
0.00293382
-2.08459e-05
0.00292825
-2.52064e-05
0.00291978
-3.33842e-05
0.00290687
-4.61057e-05
0.00288788
-6.38985e-05
0.00286146
-8.61481e-05
0.00282678
-0.000110656
0.00278411
-0.00013421
0.00273487
-0.000153158
0.00268118
-0.000164811
0.0026251
-0.00016786
0.00256817
-0.000162209
0.00251088
-0.000148409
0.00245307
-0.000127644
0.00239347
-0.000100778
0.00233011
-6.91875e-05
0.00226085
-3.44563e-05
0.00218301
1.45224e-06
0.00209582
3.38558e-05
5.60509e-05
0.00287911
-1.68033e-05
0.00287401
-2.01111e-05
0.00286674
-2.61129e-05
0.002856
-3.53608e-05
0.00284047
-4.8371e-05
0.00281909
-6.477e-05
0.00279112
-8.26897e-05
0.00275671
-9.97989e-05
0.00271666
-0.000113109
0.00267238
-0.000120531
0.00262538
-0.00012086
0.00257665
-0.000113476
0.0025267
-9.84638e-05
0.00247499
-7.59264e-05
0.00242025
-4.60401e-05
0.00236
-8.94424e-06
0.00229108
3.44683e-05
0.00221013
8.23978e-05
0.00211331
0.000130677
0.000169084
0.0028246
-1.32002e-05
0.00282005
-1.55543e-05
0.00281379
-1.98608e-05
0.00280482
-2.63917e-05
0.00279219
-3.57364e-05
0.00277484
-4.74248e-05
0.00275231
-6.01516e-05
0.00272429
-7.17852e-05
0.0026916
-8.04196e-05
0.00265526
-8.41878e-05
0.00261629
-8.18849e-05
0.00257567
-7.28636e-05
0.00253363
-5.64228e-05
0.00248985
-3.2149e-05
0.00244292
8.92017e-07
0.00238947
4.45098e-05
0.00232524
9.87011e-05
0.00224383
0.000163803
0.00213797
0.000236536
0.000306696
0.00274667
-9.92769e-06
0.00274266
-1.15413e-05
0.00273724
-1.4442e-05
0.00272976
-1.89154e-05
0.0027193
-2.52802e-05
0.00270504
-3.31556e-05
0.00268646
-4.15747e-05
0.00266363
-4.89567e-05
0.00263688
-5.36709e-05
0.00260722
-5.45253e-05
0.00257571
-5.03734e-05
0.00254324
-4.03931e-05
0.00251044
-2.36264e-05
0.00247748
8.08645e-07
0.00244201
3.63662e-05
0.00240176
8.47568e-05
0.00235027
0.000150195
0.00227744
0.000236626
0.00216888
0.000345105
0.000475091
0.00259129
-6.89439e-06
0.00258766
-7.90888e-06
0.00258289
-9.67002e-06
0.00257637
-1.23993e-05
0.0025674
-1.6313e-05
0.00255536
-2.11132e-05
0.00253984
-2.60518e-05
0.0025209
-3.00186e-05
0.00249918
-3.1945e-05
0.00247559
-3.09362e-05
0.00245135
-2.61355e-05
0.00242781
-1.68563e-05
0.00240619
-1.99969e-06
0.00238639
2.06041e-05
0.00236883
5.39232e-05
0.00235104
0.000102547
0.00232688
0.000174358
0.0022826
0.000280906
0.00219392
0.000433784
0.000668452
0.00225834
-4.1256e-06
0.00225505
-4.62004e-06
0.00225078
-5.39429e-06
0.00224501
-6.63282e-06
0.00223724
-8.54087e-06
0.00222704
-1.09153e-05
0.00221414
-1.31487e-05
0.00219883
-1.47108e-05
0.00218186
-1.49728e-05
0.0021644
-1.3485e-05
0.00214793
-9.65717e-06
0.00213404
-2.97013e-06
0.0021245
7.5415e-06
0.00212132
2.37828e-05
0.00212653
4.87097e-05
0.0021411
8.79841e-05
0.00216309
0.000152361
0.00218265
0.000261353
0.00216779
0.000448638
0.000835565
0.00162114
-1.70577e-06
0.00161823
-1.70546e-06
0.00161463
-1.79299e-06
0.00161006
-2.06796e-06
0.00160408
-2.56128e-06
0.00159637
-3.19891e-06
0.00158697
-3.74736e-06
0.00157627
-4.01699e-06
0.00156512
-3.81873e-06
0.00155459
-2.96116e-06
0.00154626
-1.32778e-06
0.00154181
1.48576e-06
0.00154358
5.77257e-06
0.00155484
1.25191e-05
0.00158004
2.35061e-05
0.00162565
4.23761e-05
0.00170079
7.7225e-05
0.00181684
0.000145298
0.00196507
0.000300411
0.000799915
0.00061945
0.000617744
0.000615951
0.000613883
0.000611322
0.000608123
0.000604376
0.000600359
0.00059654
0.000593579
0.000592251
0.000593737
0.000599509
0.000612029
0.000635535
0.000677911
0.000755136
0.000900434
0.00120084
7.86371e-06
-1.68e-09
7.74506e-07
6.44279e-07
6.44076e-07
7.75471e-07
-1.85886e-10
-6.49903e-07
-3.29688e-07
-2.08342e-09
1.69556e-05
1.07771e-06
1.16752e-06
1.16542e-06
1.07816e-06
7.83841e-11
-1.30139e-07
1.3006e-07
7.84565e-06
7.74161e-07
6.42904e-07
6.4375e-07
7.7361e-07
9.77101e-07
-6.36625e-12
-6.48173e-07
-3.28922e-07
1.69142e-05
1.07697e-06
1.16443e-06
1.16439e-06
1.07585e-06
2.20579e-05
-2.7406e-09
1.06509e-06
8.93552e-07
8.94271e-07
1.06838e-06
-4.54734e-10
-1.86548e-06
-3.59303e-07
-4.21714e-09
2.80772e-05
9.35052e-07
1.1544e-06
1.14775e-06
9.34755e-07
1.36933e-10
-2.66821e-07
1.24379e-06
2.19791e-05
1.0638e-06
8.9046e-07
8.93174e-07
1.06411e-06
2.21687e-06
-2.71329e-11
-1.85903e-06
-3.57812e-07
2.79537e-05
9.33517e-07
1.14776e-06
1.14601e-06
9.30063e-07
1.83408e-05
-5.83098e-09
4.19354e-07
1.19762e-07
1.17835e-07
4.27434e-07
-1.7521e-09
-2.73351e-06
-1.91252e-07
-1.22337e-08
5.61544e-06
-7.02826e-08
2.45988e-08
9.38953e-09
-6.37088e-08
4.37987e-10
-1.19709e-07
2.33614e-06
1.81369e-05
4.15629e-07
1.10506e-07
1.13587e-07
4.15216e-07
2.8953e-06
-2.12459e-10
-2.71215e-06
-1.82944e-07
5.27933e-06
-7.77294e-08
-2.497e-09
-1.3961e-09
-8.1045e-08
-4.60621e-05
-1.25536e-08
-5.80301e-06
-4.64496e-06
-4.64962e-06
-5.77631e-06
-9.86791e-09
6.69397e-06
1.84575e-05
-2.30417e-08
-9.05739e-05
-1.5026e-05
-2.27934e-05
-2.28402e-05
-1.49975e-05
1.12687e-09
1.04922e-06
1.84496e-06
-4.64863e-05
-5.84518e-06
-4.70687e-06
-4.68009e-06
-5.87599e-06
-2.54837e-05
9.09991e-09
6.90072e-06
1.85739e-05
-9.09845e-05
-1.50664e-05
-2.30185e-05
-2.29458e-05
-1.51271e-05
-2.65868e-11
-9.71237e-06
-4.98418e-08
0.000292795
1.52123e-10
-1.31052e-07
-3.4544e-07
-1.28851e-07
-3.40491e-07
3.77467e-10
0.000294706
-2.97982e-08
2.12656e-07
2.11495e-07
-3.00375e-08
2.52832e-10
9.88537e-06
3.46736e-07
9.76495e-06
-5.76853e-11
-9.71493e-06
-4.99651e-08
0.000292808
-1.32595e-07
-3.43773e-07
-1.31846e-07
-3.38852e-07
0.000294722
-2.9773e-08
2.13057e-07
2.1157e-07
-2.9846e-08
1.2293e-11
-9.85842e-06
-7.56446e-08
0.000295613
6.93121e-10
1.90628e-07
6.00265e-09
8.78384e-09
1.93327e-07
1.01649e-09
0.000298513
1.45952e-07
3.34412e-07
3.33415e-07
1.43241e-07
5.46867e-11
9.77274e-06
-7.84754e-09
9.93616e-06
-8.59451e-11
-9.86017e-06
-7.58982e-08
0.000295633
1.88976e-07
1.03229e-08
1.08796e-08
1.90234e-07
0.000298549
1.47967e-07
3.33963e-07
3.32024e-07
1.47406e-07
9.86551e-11
-1.01017e-05
-1.08204e-07
0.000300796
1.72114e-09
3.04471e-07
1.08298e-07
1.08158e-07
3.03272e-07
2.65585e-09
0.000305524
2.63824e-07
4.83775e-07
4.83449e-07
2.61822e-07
1.94228e-11
9.96871e-06
-3.25695e-08
1.02148e-05
-1.55187e-10
-1.01074e-05
-1.07241e-07
0.000300833
3.06892e-07
1.07651e-07
1.08352e-07
3.08953e-07
0.000305589
2.64449e-07
4.85232e-07
4.82399e-07
2.63898e-07
3.1963e-10
-1.05534e-05
-1.86841e-07
0.000310598
4.02288e-09
5.51977e-07
3.09954e-07
3.11293e-07
5.52105e-07
5.93558e-09
0.000319284
5.47968e-07
8.46052e-07
8.48062e-07
5.43539e-07
-7.20033e-11
1.02974e-05
-8.24617e-08
1.07533e-05
-3.57849e-10
-1.05637e-05
-1.89171e-07
0.000310699
5.53228e-07
3.11631e-07
3.11962e-07
5.5703e-07
0.000319442
5.51821e-07
8.519e-07
8.48391e-07
5.53811e-07
1.69938e-09
-1.16957e-05
-7.32028e-07
0.000331204
9.16703e-09
1.28758e-06
8.59827e-07
8.67289e-07
1.28484e-06
1.43796e-08
0.00034935
1.73862e-06
2.69417e-06
2.69939e-06
1.72631e-06
-3.8634e-10
1.09722e-05
-2.18557e-07
1.2471e-05
-1.40541e-09
-1.17263e-05
-7.43329e-07
0.000331449
1.29259e-06
8.68964e-07
8.68696e-07
1.30469e-06
0.000349739
1.74252e-06
2.72706e-06
2.7102e-06
1.74558e-06
3.74931e-08
-2.75462e-05
-2.05069e-05
0.000374893
2.06487e-08
7.94841e-06
4.96997e-06
4.9952e-06
7.92141e-06
1.8674e-08
0.000388421
1.47034e-05
1.93156e-05
1.93734e-05
1.4651e-05
-2.29125e-09
1.41805e-05
-1.70717e-06
4.81902e-05
-3.80177e-09
-2.76694e-05
-2.0517e-05
0.000375549
7.95439e-06
5.01234e-06
4.99496e-06
7.99379e-06
0.000389084
1.46874e-05
1.95095e-05
1.95441e-05
1.47053e-05
2.08003e-07
-5.1405e-07
-6.79329e-11
1.08105e-06
-4.30614e-10
-3.02586e-11
5.13937e-07
-1.09934e-10
-2.08219e-07
3.38777e-07
1.3052e-07
-1.30355e-07
-2.38856e-10
3.38679e-07
-2.62555e-10
-3.66411e-10
1.08112e-06
-3.31202e-06
2.97884e-07
1.40025e-10
4.0797e-06
-6.16676e-10
-2.66867e-07
1.24668e-06
-9.79575e-07
-3.169e-10
3.00773e-11
3.31222e-06
-2.68648e-06
-1.77117e-10
-2.97718e-07
1.54553e-06
-2.68406e-06
-5.29785e-10
1.54476e-06
-3.69339e-10
4.08302e-06
-5.48446e-06
1.84785e-07
6.83801e-10
5.71934e-06
-9.90729e-10
-1.1899e-07
2.34299e-06
-2.22361e-06
-5.35384e-10
-1.10025e-11
5.49151e-06
-5.49384e-06
-5.30385e-10
-1.85891e-07
2.5339e-06
-5.48476e-06
-8.67484e-10
2.52787e-06
-6.22807e-10
5.73374e-06
-1.65246e-06
-1.94602e-06
6.54752e-09
-2.20923e-06
-1.8586e-09
1.03422e-06
1.88095e-06
-2.91546e-06
-6.0581e-10
-1.49023e-09
1.6905e-06
-5.30866e-06
-2.49571e-09
1.93356e-06
-2.89748e-08
-5.26814e-06
-1.20917e-09
-6.67549e-08
-8.07358e-10
-2.14571e-06
-1.55704e-07
-4.35197e-12
-3.27868e-05
3.28114e-05
3.63791e-11
-3.66066e-11
1.56572e-07
9.72634e-06
3.27832e-05
4.24181e-10
9.88396e-06
3.47948e-07
4.06651e-12
9.7282e-06
2.15647e-11
3.28109e-05
1.03899e-12
3.69037e-08
-3.29581e-05
-8.17858e-11
3.31117e-05
1.74905e-10
9.77191e-06
-7.87866e-09
-9.76399e-06
8.52884e-11
3.51208e-11
-3.64301e-08
9.80779e-06
2.13573e-10
3.29542e-05
-3.29577e-05
9.80875e-06
9.55438e-11
-3.29571e-05
1.16266e-10
3.3111e-05
5.90346e-08
-3.35416e-05
-9.58233e-11
3.37867e-05
3.47007e-10
9.9659e-06
-3.08019e-08
-9.93515e-06
1.76457e-10
6.63095e-11
-5.81237e-08
1.00225e-05
2.56243e-10
3.35396e-05
-3.34621e-05
1.00248e-05
2.32927e-10
-3.34642e-05
2.91351e-10
3.37846e-05
1.15753e-07
-3.45757e-05
-3.06755e-10
3.50114e-05
8.32535e-10
1.02927e-05
-8.11361e-08
-1.02117e-05
4.42138e-10
1.7935e-10
-1.13497e-07
1.04044e-05
3.88953e-10
3.45703e-05
-3.43423e-05
1.04081e-05
5.11805e-10
-3.43459e-05
7.23836e-10
3.50086e-05
2.89193e-07
-3.67201e-05
-1.26721e-09
3.7718e-05
1.73407e-09
1.09598e-05
-2.15399e-07
-1.07447e-05
8.62822e-10
7.26771e-10
-2.86633e-07
1.124e-05
8.52029e-10
3.67052e-05
-3.6061e-05
1.12488e-05
9.97482e-10
-3.60688e-05
1.49658e-09
3.77022e-05
3.69922e-06
-4.42453e-05
-7.5516e-09
4.84988e-05
3.25502e-09
1.41586e-05
-1.71222e-06
-1.24452e-05
1.1354e-09
4.21408e-09
-3.67505e-06
1.77918e-05
3.79032e-09
4.41979e-05
-4.09289e-05
1.78604e-05
1.64286e-09
-4.09611e-05
2.55218e-09
4.84367e-05
-0.000148514
-1.59421e-08
0.000402447
-3.77818e-09
-5.85727e-09
0.000236563
-0.000116226
2.53625e-05
1.51404e-05
1.50426e-05
-4.81531e-05
-5.25865e-05
-5.24503e-05
-0.000148427
0.000402406
3.10759e-07
1.84829e-06
1.50697e-10
-4.38795e-10
-6.49537e-07
-3.29939e-07
-2.85323e-10
-1.6605e-10
-3.1096e-07
-1.83892e-10
-1.84847e-06
-2.65462e-10
-4.75248e-10
2.08037e-07
-5.13137e-07
-2.89145e-10
1.07912e-06
1.30251e-07
-1.30411e-07
1.60086e-10
5.12606e-07
4.77915e-11
-2.0775e-07
3.37764e-07
3.38068e-07
1.07818e-06
3.10706e-07
1.84503e-06
-8.85678e-11
-6.485e-07
-3.29785e-07
9.77992e-07
-3.58049e-12
-3.10406e-07
8.17306e-11
-1.84353e-06
2.67895e-06
2.67925e-06
3.18332e-07
4.6971e-06
4.36002e-11
-7.22624e-10
-1.86334e-06
-3.60227e-07
-4.96553e-10
-1.68029e-10
-3.19787e-07
-7.18388e-10
-4.69803e-06
-4.25768e-10
-8.51422e-10
-3.30557e-06
2.9786e-07
-2.45085e-10
4.07113e-06
-2.66674e-07
1.24448e-06
3.46985e-10
3.30224e-06
7.92059e-11
-2.96884e-07
1.54059e-06
1.54205e-06
4.06922e-06
3.18179e-07
4.68621e-06
-4.60144e-10
-1.85996e-06
-3.60132e-07
2.21957e-06
1.60179e-10
-3.18607e-07
-6.97185e-11
-4.68022e-06
5.47023e-06
5.47117e-06
1.95461e-07
5.45402e-06
6.48943e-10
-1.08051e-09
-2.72328e-06
-1.93199e-07
-7.36044e-10
-7.37471e-10
-1.98873e-07
-3.4988e-09
-5.47181e-06
-6.87709e-10
-1.41844e-09
-5.46665e-06
1.8394e-07
-5.52044e-10
5.6979e-06
-1.18154e-07
2.33762e-06
9.12794e-10
5.46011e-06
2.49086e-10
-1.82484e-07
2.51838e-06
2.52118e-06
5.69229e-06
1.93893e-07
5.42639e-06
-1.1961e-09
-2.71475e-06
-1.90111e-07
2.90391e-06
3.58953e-10
-1.94128e-07
-7.84068e-10
-5.41592e-06
5.23126e-06
5.23269e-06
-6.70176e-06
-1.05346e-05
4.75163e-09
-3.62426e-09
6.76869e-06
1.84693e-05
-9.69634e-09
-2.08423e-09
6.66708e-06
-1.35527e-08
1.04714e-05
-1.91641e-09
-6.67458e-09
-1.59929e-06
-1.96599e-06
9.71166e-10
-2.28273e-06
1.04576e-06
1.85868e-06
2.13954e-09
1.57146e-06
4.20217e-10
1.98345e-06
-1.38904e-07
-1.07701e-07
-2.32011e-06
-6.72668e-06
-1.06211e-05
-4.9313e-09
6.83244e-06
1.85294e-05
3.86515e-09
6.75795e-06
1.60534e-09
1.06942e-05
-1.44656e-08
3.27961e-05
-4.42582e-11
5.53641e-11
-9.71369e-06
-5.0379e-08
5.28896e-11
-1.22777e-12
1.39773e-08
-3.08863e-11
-3.27948e-05
3.63973e-11
8.32688e-11
-1.55749e-07
2.18911e-11
-3.27888e-05
3.2812e-05
9.88529e-06
3.47947e-07
-5.27012e-11
1.56605e-07
9.72882e-06
3.27866e-05
4.19119e-10
9.72951e-06
3.28114e-05
-1.44753e-08
3.27968e-05
-1.0537e-11
-9.71505e-06
-5.03906e-08
9.76543e-06
-2.44982e-11
1.39143e-08
-7.91564e-11
-3.27954e-05
3.29586e-05
3.29579e-05
5.01237e-08
3.32075e-05
-1.52267e-10
1.80667e-10
-9.85884e-06
-7.64571e-08
1.58837e-10
8.26096e-11
-5.07048e-08
3.13216e-11
-3.32034e-05
1.18242e-10
2.59957e-10
3.68325e-08
-3.29619e-05
3.74443e-11
3.31142e-05
9.77271e-06
-7.13784e-09
-2.88318e-11
-3.64378e-08
9.80921e-06
1.45406e-10
3.29609e-05
9.80961e-06
3.31148e-05
5.01936e-08
3.32122e-05
-3.24242e-11
-9.85993e-06
-7.64384e-08
9.93645e-06
6.57632e-12
-5.09705e-08
-1.1495e-10
-3.32112e-05
3.34694e-05
3.34679e-05
7.88526e-08
3.39715e-05
-2.26383e-10
4.66101e-10
-1.01035e-05
-1.08553e-07
3.85391e-10
1.34266e-10
-7.931e-08
1.79046e-10
-3.39669e-05
2.91672e-10
6.27049e-10
5.91046e-08
-3.3545e-05
1.08938e-10
3.3793e-05
9.96828e-06
-3.16417e-08
-8.01105e-11
-5.87018e-08
1.00275e-05
7.44149e-11
3.35444e-05
1.00275e-05
3.37947e-05
7.89128e-08
3.3979e-05
6.49091e-11
-1.01067e-05
-1.07666e-07
1.02146e-05
-5.35821e-11
-7.99032e-08
-1.96061e-10
-3.39788e-05
3.4357e-05
3.43541e-05
1.4846e-07
3.54104e-05
-4.93077e-10
1.03485e-09
-1.05562e-05
-1.88954e-07
7.53289e-10
3.26728e-10
-1.49327e-07
5.81712e-10
-3.54024e-05
6.41389e-10
1.27621e-09
1.16644e-07
-3.45856e-05
2.69301e-10
3.50227e-05
1.02961e-05
-8.11578e-08
-1.99772e-10
-1.16454e-07
1.0414e-05
-8.33758e-11
3.45862e-05
1.04131e-05
3.50271e-05
1.47912e-07
3.54274e-05
3.05872e-10
-1.05614e-05
-1.89047e-07
1.07509e-05
-2.05141e-10
-1.49509e-07
-4.57485e-10
-3.54317e-05
3.60949e-05
3.60875e-05
4.60209e-07
3.89961e-05
-1.68454e-09
1.9932e-09
-1.17089e-05
-7.35575e-07
1.02354e-09
1.06509e-09
-4.56772e-07
3.25629e-09
-3.897e-05
1.10651e-09
2.08187e-09
2.89236e-07
-3.67411e-05
8.08822e-10
3.77454e-05
1.09674e-05
-2.16035e-07
-6.5292e-10
-2.90956e-07
1.12638e-05
-5.90846e-10
3.67459e-05
1.1257e-05
3.77604e-05
4.60204e-07
3.90282e-05
1.47904e-09
-1.17173e-05
-7.38765e-07
1.24557e-05
-9.95139e-10
-4.61486e-07
-1.44763e-09
-3.9046e-05
4.10312e-05
4.10003e-05
9.79669e-06
5.3408e-05
-6.99256e-09
4.50361e-09
-2.76601e-05
-2.04558e-05
2.89454e-09
7.55273e-09
-9.76196e-06
9.87892e-09
-5.33187e-05
4.5545e-09
-3.46093e-10
3.69439e-06
-4.4288e-05
3.92218e-09
4.85473e-05
1.4161e-05
-1.70656e-06
-4.08448e-09
-3.70363e-06
1.78882e-05
-3.26275e-09
4.43396e-05
1.7853e-05
4.86337e-05
9.75189e-06
5.3475e-05
1.23122e-08
-2.75972e-05
-2.05567e-05
-1.21907e-08
-9.76898e-06
-1.16798e-08
-5.35823e-05
)
;

boundaryField
{
    fixedWalls
    {
        type            calculated;
        value           uniform 0;
    }
    frontAndBack
    {
        type            empty;
        value           nonuniform 0();
    }
    right
    {
        type            calculated;
        value           nonuniform List<scalar> 
25
(
-1.02299e-05
-0.0022531
-0.00290467
-0.00316204
-0.00320051
-0.00314916
-0.00307414
-0.00300137
-0.00293798
-0.00288315
-0.00282821
-0.00274994
-0.00259433
-0.00226111
-0.00162356
-0.000621155
-1.02324e-05
-0.000291772
-0.000291762
-1.02317e-05
-3.27789e-05
-3.27823e-05
-3.27841e-05
-3.27793e-05
-1.0233e-05
)
;
    }
    left
    {
        type            calculated;
        value           nonuniform List<scalar> 
20
(
0.00199949
0.00199949
0.0019995
0.00199952
0.00199956
0.00199956
0.00199964
0.00199968
0.00199976
0.00199984
0.00199992
0.00200004
0.00200016
0.00200028
0.00200036
0.00200048
0.00200056
0.00200068
0.00200072
0.00200076
)
;
    }
    model
    {
        type            calculated;
        value           uniform 0;
    }
}


// ************************************************************************* //
