/*--------------------------------*- C++ -*----------------------------------*\
  =========                 |
  \\      /  F ield         | OpenFOAM: The Open Source CFD Toolbox
   \\    /   O peration     | Website:  https://openfoam.org
    \\  /    A nd           | Version:  7
     \\/     M anipulation  |
\*---------------------------------------------------------------------------*/
FoamFile
{
    version     2.0;
    format      ascii;
    class       volVectorField;
    location    "0.5";
    object      U;
}
// * * * * * * * * * * * * * * * * * * * * * * * * * * * * * * * * * * * * * //

dimensions      [0 1 -1 0 0 0 0];

internalField   nonuniform List<vector> 
733
(
(-0.000139847 0.000236713 0.00442888)
(-0.0161834 0.00424229 1.24655e-08)
(-0.0102087 -0.002868 0)
(0.00798526 -0.0071172 0)
(0.032397 -0.00852553 3.09011e-24)
(0.0560852 -0.00780975 0)
(0.0764971 -0.00638675 0)
(0.0932049 -0.00526035 0)
(0.107387 -0.00499605 0)
(0.121167 -0.0060961 0)
(0.137555 -0.00953149 0)
(0.162351 -0.0176089 0)
(0.215644 -0.0376065 0)
(0.225422 -0.101385 6.0621e-25)
(-0.000320414 0.00401563 0.00505621)
(-0.00859078 0.00350745 -4.77005e-10)
(0.0188582 -0.0232245 -1.94494e-22)
(0.060738 -0.0389056 3.45517e-22)
(0.108236 -0.0430679 -1.43006e-22)
(0.153772 -0.039493 -2.98679e-24)
(0.193452 -0.0331151 0)
(0.22651 -0.0274679 0)
(0.254369 -0.0245434 9.65307e-25)
(0.279547 -0.0256517 0)
(0.305048 -0.0325842 0)
(0.333429 -0.0488594 -2.04366e-23)
(0.371539 -0.0832549 2.04365e-23)
(0.387447 -0.185325 -2.27166e-25)
(-0.000171128 0.00822412 0.00642521)
(0.0233827 -0.0217129 3.60536e-09)
(0.073535 -0.0686453 -1.73998e-23)
(0.127855 -0.0938447 -1.10887e-23)
(0.180968 -0.0979762 1.3757e-22)
(0.229763 -0.0889062 -1.76926e-23)
(0.272071 -0.0750423 -1.4496e-22)
(0.307461 -0.0623803 4.92768e-23)
(0.336961 -0.0542829 -9.65547e-25)
(0.362153 -0.0525388 -4.43513e-23)
(0.384559 -0.0587038 4.43513e-23)
(0.403982 -0.0751639 0)
(0.419684 -0.105536 0)
(0.4219 -0.163627 -3.90344e-25)
(0.00134404 0.00917784 0.00978238)
(0.108936 -0.0833738 -7.70726e-07)
(0.171265 -0.129048 1.67043e-22)
(0.22225 -0.150278 5.48366e-23)
(0.264171 -0.148647 2.35766e-22)
(0.300327 -0.132804 -1.61258e-22)
(0.331624 -0.112062 -2.27472e-22)
(0.358297 -0.0932004 1.09086e-22)
(0.380767 -0.0799985 6.83867e-23)
(0.399422 -0.0741564 -6.83842e-23)
(0.414437 -0.0764555 4.66338e-23)
(0.424513 -0.0875019 -4.66325e-23)
(0.42726 -0.10733 -1.36383e-23)
(0.42286 -0.136752 1.36379e-23)
(0.0352042 -5.40657e-06 0.000162951)
(0.0349567 -5.26609e-06 0.000923225)
(0.0356257 -1.44598e-05 0.00183773)
(0.0366998 -6.18414e-05 0.00281422)
(0.0388013 -0.000191995 0.00387452)
(0.0463374 -0.00234163 0.0051235)
(0.177505 -0.0850103 0.0102782)
(0.300159 -0.14903 -1.92216e-06)
(0.329309 -0.175516 -1.50313e-22)
(0.349007 -0.184778 -5.49697e-23)
(0.36246 -0.176367 2.00495e-23)
(0.374141 -0.156471 0)
(0.385776 -0.132831 6.25938e-23)
(0.397357 -0.111405 1.21298e-24)
(0.408275 -0.0955835 3.59252e-24)
(0.417652 -0.0867522 -6.57718e-23)
(0.424586 -0.0851268 3.96728e-23)
(0.427348 -0.0902877 -3.9671e-23)
(0.423798 -0.100958 1.02715e-23)
(0.417513 -0.114879 -1.02711e-23)
(0.451822 -0.00323323 -5.99581e-10)
(0.454225 -0.00429365 3.18899e-09)
(0.459128 -0.00718178 3.57068e-09)
(0.46749 -0.0132617 -2.0615e-08)
(0.480438 -0.0258276 1.45999e-08)
(0.499496 -0.0557859 3.77514e-07)
(0.512811 -0.111528 -9.67762e-07)
(0.50016 -0.151574 -5.32307e-07)
(0.483271 -0.174302 7.44738e-23)
(0.465534 -0.180728 0)
(0.449757 -0.172615 -1.49672e-22)
(0.438236 -0.155159 1.53788e-22)
(0.431557 -0.134402 -8.61582e-24)
(0.428911 -0.115074 -3.72165e-24)
(0.428801 -0.100013 1.93188e-24)
(0.429485 -0.0904397 0)
(0.42944 -0.0864737 -3.01518e-23)
(0.426809 -0.0875044 3.41417e-23)
(0.419994 -0.0921865 -9.95371e-24)
(0.413216 -0.0981952 7.1819e-24)
(0.581356 -0.00545798 1.78402e-23)
(0.582792 -0.00748393 -2.97667e-23)
(0.585616 -0.0123219 2.32266e-23)
(0.589796 -0.0212522 0)
(0.594952 -0.0363874 -5.89214e-22)
(0.599443 -0.0614022 1.18883e-22)
(0.59658 -0.0974248 6.39895e-22)
(0.579385 -0.129108 -1.16818e-22)
(0.55322 -0.148881 -2.2957e-22)
(0.524782 -0.155443 -4.17213e-23)
(0.498765 -0.150726 1.05345e-22)
(0.47761 -0.138634 -4.23662e-24)
(0.461964 -0.123399 7.68516e-24)
(0.451204 -0.108451 3.72227e-24)
(0.443962 -0.096045 0)
(0.438531 -0.0873075 -3.00714e-23)
(0.433431 -0.0824878 1.11673e-23)
(0.426995 -0.0811865 5.86828e-25)
(0.418108 -0.0824346 1.9438e-23)
(0.41099 -0.0846278 1.50827e-24)
(0.631909 -0.00666808 0)
(0.632438 -0.0089675 -8.03216e-24)
(0.633207 -0.0142927 -4.65894e-23)
(0.633704 -0.0234867 0)
(0.63309 -0.0376161 0)
(0.629726 -0.0576962 3.70423e-22)
(0.619979 -0.082875 1.98532e-22)
(0.600956 -0.10604 4.49944e-23)
(0.575061 -0.12151 1.05483e-22)
(0.547012 -0.127663 -3.47619e-23)
(0.520657 -0.125716 -6.39205e-23)
(0.498084 -0.11818 6.6961e-23)
(0.479938 -0.107796 -3.1941e-23)
(0.465877 -0.0969252 1.46343e-23)
(0.45494 -0.0872683 -1.41998e-23)
(0.445825 -0.0798103 -6.89057e-24)
(0.437403 -0.0749096 0)
(0.428335 -0.0724323 1.22608e-23)
(0.417854 -0.0718278 -1.54511e-23)
(0.410277 -0.0722247 -1.73394e-24)
(0.638987 -0.00699892 0)
(0.638901 -0.00914442 -1.20257e-23)
(0.638368 -0.0139941 8.60195e-23)
(0.636831 -0.022042 -1.0733e-22)
(0.633464 -0.0337641 0)
(0.627079 -0.0492402 -5.21802e-22)
(0.61581 -0.0673687 -1.98367e-22)
(0.598423 -0.0843286 3.17731e-23)
(0.576237 -0.0964612 0)
(0.552187 -0.102309 -9.10243e-24)
(0.528975 -0.102361 -2.48548e-23)
(0.508206 -0.0980925 -1.56478e-23)
(0.490464 -0.0912548 5.11777e-25)
(0.475613 -0.0834674 -1.46338e-23)
(0.46306 -0.0760013 2.81632e-23)
(0.451905 -0.0696922 6.89083e-24)
(0.441384 -0.0649606 -6.22477e-24)
(0.430472 -0.0618901 0)
(0.418612 -0.0602704 0)
(0.410456 -0.0597886 1.9522e-24)
(0.628412 -0.00671685 0)
(0.627969 -0.00853734 2.24342e-23)
(0.626793 -0.0125481 -3.94268e-23)
(0.624474 -0.0190502 1.3463e-22)
(0.620334 -0.0282717 -1.38661e-22)
(0.61353 -0.0400367 1.51186e-22)
(0.603092 -0.0533706 0)
(0.588501 -0.0660154 8.89119e-23)
(0.570524 -0.0756217 7.42705e-23)
(0.550916 -0.0809717 1.70238e-23)
(0.531452 -0.0821102 1.69178e-23)
(0.513304 -0.0798503 0)
(0.496974 -0.0752994 -2.24989e-23)
(0.482454 -0.0695637 2.1591e-23)
(0.469402 -0.0635853 -2.81598e-23)
(0.457209 -0.0580605 0)
(0.445384 -0.0534355 6.22477e-24)
(0.433133 -0.0499528 -3.98707e-25)
(0.419993 -0.0476596 -4.98665e-24)
(0.411163 -0.046659 -1.65328e-24)
(0.613299 -0.00608104 0)
(0.612679 -0.00754643 -1.04089e-23)
(0.611266 -0.0106944 0)
(0.608826 -0.0157382 0)
(0.604827 -0.022828 6.31215e-23)
(0.598659 -0.0317596 6.13504e-23)
(0.589768 -0.0417416 -1.22012e-22)
(0.577926 -0.0513034 -6.66012e-23)
(0.563587 -0.0588751 1.31294e-22)
(0.547796 -0.0634882 6.44755e-23)
(0.531687 -0.0649771 -7.90426e-24)
(0.51609 -0.0637494 7.9041e-24)
(0.501412 -0.0604871 5.71698e-23)
(0.487703 -0.0559356 3.73111e-24)
(0.474762 -0.0507841 -6.86147e-24)
(0.46215 -0.0456028 4.72427e-25)
(0.449537 -0.0408374 -6.14282e-24)
(0.436272 -0.0368464 -2.52209e-24)
(0.421869 -0.0338876 2.43141e-24)
(0.412262 -0.0324173 7.69904e-25)
(0.59874 -0.00528662 1.48648e-24)
(0.598056 -0.00642877 0)
(0.596627 -0.0088256 -2.1066e-23)
(0.594354 -0.0126486 8.04068e-24)
(0.590832 -0.0180267 4.83188e-23)
(0.585593 -0.0247898 0)
(0.578276 -0.0323168 6.06101e-23)
(0.568758 -0.0395725 0)
(0.55731 -0.0454516 -6.46423e-23)
(0.544556 -0.0491927 -1.27085e-22)
(0.531223 -0.0505468 0)
(0.517884 -0.0496791 0)
(0.504852 -0.0469862 -6.23454e-23)
(0.49218 -0.042952 0)
(0.479725 -0.0380634 -1.16846e-23)
(0.467123 -0.032772 1.09993e-23)
(0.454102 -0.027502 1.25302e-23)
(0.440046 -0.0226934 1.14011e-23)
(0.424326 -0.0188108 -4.83247e-24)
(0.413802 -0.0166765 -7.8215e-25)
(0.586127 -0.00445414 -2.15838e-24)
(0.585448 -0.00532368 -8.07166e-24)
(0.584112 -0.0071094 3.67111e-23)
(0.582116 -0.00995717 -1.59726e-23)
(0.579145 -0.0139879 3.94904e-23)
(0.574825 -0.0190736 0)
(0.568889 -0.0247298 0)
(0.561245 -0.030188 -5.60264e-23)
(0.55205 -0.0346324 -3.05187e-23)
(0.541688 -0.0374586 1.3986e-22)
(0.530627 -0.0383945 3.87647e-25)
(0.519263 -0.0374591 1.5965e-23)
(0.507824 -0.0348508 3.57083e-23)
(0.496339 -0.0308509 -5.03128e-24)
(0.484671 -0.025769 6.30765e-25)
(0.472454 -0.0199272 -1.55556e-23)
(0.459381 -0.0137055 0)
(0.444755 -0.00761235 -5.92478e-24)
(0.427627 -0.00223258 4.83229e-24)
(0.41599 0.00109068 7.82121e-25)
(0.575216 -0.00365 1.35513e-24)
(0.574579 -0.00429869 1.0857e-23)
(0.573382 -0.00560396 -3.46716e-23)
(0.571681 -0.00769026 7.39106e-24)
(0.569228 -0.0106684 -3.09065e-23)
(0.565715 -0.0144421 0)
(0.560924 -0.0186309 -2.62911e-23)
(0.55477 -0.0226457 1.10767e-22)
(0.547344 -0.025864 -2.84589e-23)
(0.538889 -0.0277997 -3.10276e-23)
(0.529721 -0.0281844 -6.49264e-23)
(0.52012 -0.026945 0)
(0.51025 -0.0241332 4.41649e-23)
(0.500117 -0.0198582 -8.63157e-24)
(0.489566 -0.0142467 1.76824e-23)
(0.478171 -0.00744985 -1.07708e-24)
(0.465484 0.000255831 8.87251e-24)
(0.450685 0.00838963 0)
(0.432199 0.0162001 0)
(0.4192 0.0217978 0)
(0.564302 -0.00290603 5.90199e-25)
(0.563722 -0.00337999 -6.67402e-24)
(0.56267 -0.00431403 2.13721e-23)
(0.561236 -0.00581149 -8.1096e-24)
(0.559222 -0.00796702 8.11121e-24)
(0.556371 -0.0107038 0)
(0.552494 -0.0137191 -2.40699e-23)
(0.547514 -0.0165556 -2.68793e-23)
(0.541484 -0.0187317 0)
(0.534576 -0.0198557 -1.56369e-23)
(0.527024 -0.0196751 -2.99395e-25)
(0.519048 -0.0180571 -1.71591e-23)
(0.510788 -0.0149367 -1.63986e-23)
(0.502249 -0.0102608 2.00411e-23)
(0.493278 -0.00391988 -2.44623e-24)
(0.483367 0.00409925 2.4463e-24)
(0.471896 0.013821 -8.87168e-24)
(0.457696 0.0249813 1.02629e-23)
(0.438264 0.0367104 0)
(0.423835 0.04678 0)
(0.548722 -0.00223149 -5.89799e-25)
(0.548194 -0.00256768 1.18183e-24)
(0.547268 -0.00321379 -1.33181e-23)
(0.546048 -0.00425325 -6.81956e-24)
(0.544371 -0.00576036 -7.65778e-24)
(0.542021 -0.0076674 -9.52001e-24)
(0.538838 -0.00973322 2.40678e-23)
(0.534759 -0.0116059 1.27802e-23)
(0.529829 -0.0129184 -1.57188e-23)
(0.524196 -0.0133617 3.18588e-23)
(0.51807 -0.012709 1.60894e-23)
(0.511662 -0.0107908 -1.17107e-24)
(0.505138 -0.00744513 -1.9127e-23)
(0.498587 -0.00243557 -3.33604e-24)
(0.491842 0.00448321 2.89326e-23)
(0.484407 0.0137289 0)
(0.475596 0.0257889 1.14914e-23)
(0.463736 0.0409803 -2.19372e-23)
(0.445142 0.0588301 0)
(0.429903 0.0776133 0)
(0.517664 -0.00162067 0)
(0.517174 -0.00184493 0)
(0.516341 -0.00225957 4.98909e-24)
(0.51527 -0.00293204 1.06238e-23)
(0.513825 -0.00391563 1.42644e-23)
(0.511826 -0.00514755 -9.34763e-24)
(0.509148 -0.0064414 2.45132e-23)
(0.505753 -0.00753911 -1.26528e-23)
(0.501709 -0.00817741 2.9814e-23)
(0.497176 -0.00812806 0)
(0.492382 -0.00720187 1.84797e-23)
(0.487583 -0.00521844 -1.03355e-24)
(0.483045 -0.00194799 3.32277e-23)
(0.478896 0.00293105 -5.73363e-23)
(0.475202 0.00989945 -1.03944e-23)
(0.471747 0.0198282 1.43334e-23)
(0.467902 0.0338798 -1.29374e-23)
(0.461722 0.0535929 1.31209e-23)
(0.448755 0.0799786 7.03214e-24)
(0.435409 0.114897 1.75055e-24)
(0.451162 -0.00106025 -1.33326e-25)
(0.450691 -0.001185 0)
(0.449928 -0.00140167 -4.57389e-25)
(0.448971 -0.00176681 2.86396e-24)
(0.447703 -0.00231435 8.45184e-24)
(0.445983 -0.00298918 0)
(0.443726 -0.0036618 -5.49894e-24)
(0.44094 -0.00416719 -2.00251e-23)
(0.437726 -0.00434235 0)
(0.434275 -0.00404377 -1.71954e-23)
(0.430853 -0.00313737 -2.83584e-23)
(0.427777 -0.00146902 1.92372e-23)
(0.425382 0.00118333 -1.71901e-23)
(0.42404 0.0051596 1.72619e-23)
(0.424169 0.0111523 1.09547e-24)
(0.426055 0.0202544 -3.02808e-23)
(0.429829 0.0344222 -2.23276e-24)
(0.434187 0.0569315 -8.07935e-24)
(0.436397 0.0923191 -8.78226e-24)
(0.431927 0.15556 0)
(0.323901 -0.000547107 1.32509e-25)
(0.32345 -0.000575727 9.69091e-25)
(0.322793 -0.000624901 -3.37535e-24)
(0.322012 -0.000740495 0)
(0.321014 -0.000937222 4.65512e-24)
(0.319691 -0.00117767 4.79771e-25)
(0.318014 -0.00139542 -6.42768e-24)
(0.316018 -0.00151506 2.70128e-23)
(0.313829 -0.00146716 7.8242e-24)
(0.311643 -0.00118991 1.71936e-23)
(0.309722 -0.00061673 -9.69866e-24)
(0.308391 0.000337335 2.59255e-25)
(0.308046 0.00182066 -5.61894e-24)
(0.309227 0.00411832 1.28134e-23)
(0.31269 0.00775825 -1.81459e-23)
(0.319482 0.0137714 1.76238e-23)
(0.331137 0.0242715 2.23389e-24)
(0.349093 0.0433787 1.03119e-23)
(0.378657 0.0805074 0)
(0.39208 0.186221 0)
(0.123845 -0.000149234 0)
(0.123527 -0.000137613 0)
(0.123166 -0.00012421 0)
(0.122798 -0.000128286 0)
(0.122356 -0.000151028 0)
(0.121798 -0.000179594 -5.04209e-24)
(0.121111 -0.000197534 0)
(0.120335 -0.00018908 -4.97419e-24)
(0.119547 -0.000141249 -9.50529e-24)
(0.118855 -4.16471e-05 4.55488e-24)
(0.118403 0.000125742 7.48504e-24)
(0.118386 0.000383101 2.74267e-24)
(0.119054 0.000786732 0)
(0.120788 0.00144203 0)
(0.124224 0.00256666 0)
(0.130486 0.00464778 -2.20891e-24)
(0.141681 0.00879468 4.8312e-24)
(0.163061 0.0175303 -2.62226e-24)
(0.214117 0.0384034 0)
(0.224918 0.103525 0)
(-0.00495162 0.00334576 0.0050997)
(-0.000428797 0.00289673 0.00488573)
(-0.00756987 0.00996262 0.00550427)
(-0.000139532 0.000236007 -0.00442706)
(-0.00494222 0.00333891 -0.0050997)
(-0.000427803 0.0028889 -0.0048835)
(-0.00755395 0.00994002 -0.00550422)
(-0.00646842 0.0159951 0.00590126)
(-0.00052657 0.00738977 0.00587656)
(-0.0067818 0.021468 0.00632892)
(-0.000319295 0.0040039 -0.00505352)
(-0.00644599 0.0159495 -0.00590119)
(-0.000524551 0.00736331 -0.00587206)
(-0.00674864 0.0213909 -0.0063288)
(-0.00109588 0.019183 0.00741689)
(-0.000493039 0.0105798 0.00840925)
(0.00223883 0.0154844 0.00793976)
(-0.000168039 0.0081886 -0.00641978)
(-0.00104007 0.0190467 -0.00741689)
(-0.0004797 0.010494 -0.00839879)
(0.00234939 0.0153125 -0.00793972)
(0.0292184 -0.0114758 0.00996728)
(0.0418688 -0.0284414 0.0147731)
(0.0774037 -0.0534688 0.00999942)
(0.00138549 0.00903548 -0.0097689)
(0.0294992 -0.0117312 -0.00996699)
(0.0428352 -0.0290728 -0.0146405)
(0.0779295 -0.053693 -0.0100035)
(0.0348063 -0.000100383 0.000684356)
(0.233936 -0.000480336 0.000250593)
(0.234527 -0.00144631 0.000667899)
(0.0352098 -5.47465e-06 -0.000163013)
(0.0348129 -0.000100593 -0.000684867)
(0.233946 -0.000481054 -0.000250589)
(0.234538 -0.00144823 -0.000667899)
(0.0354197 -0.00010787 0.00158314)
(0.235744 -0.000595027 0.00118187)
(0.237214 -0.00174066 0.00166733)
(0.0349622 -5.84904e-06 -0.000924064)
(0.0354264 -0.000108178 -0.00158458)
(0.235758 -0.00059948 -0.00118186)
(0.237235 -0.00174765 -0.00166732)
(0.0363358 -0.000141009 0.00254629)
(0.239454 -0.00117018 0.0022299)
(0.241915 -0.00265957 0.00276609)
(0.0356352 -1.45347e-05 -0.00183936)
(0.0363533 -0.000142016 -0.00254991)
(0.239484 -0.00117973 -0.0022299)
(0.24196 -0.00267611 -0.00276605)
(0.038048 -0.000222606 0.00359085)
(0.24599 -0.00267476 0.00338345)
(0.250705 -0.00491206 0.00401301)
(0.0367192 -6.28488e-05 -0.00281835)
(0.03809 -0.00022602 -0.00359838)
(0.246055 -0.00270028 -0.00338342)
(0.250806 -0.00495545 -0.00401303)
(0.042612 -0.000973051 0.00478502)
(0.258741 -0.00675838 0.00475266)
(0.268693 -0.0127306 0.00561296)
(0.038855 -0.000197358 -0.00388386)
(0.042749 -0.00100497 -0.00480217)
(0.258897 -0.00683552 -0.00475245)
(0.268914 -0.0128865 -0.00561246)
(0.091476 -0.0342676 0.0129313)
(0.286995 -0.0263638 0.00653353)
(0.308625 -0.0549323 0.00773771)
(0.046545 -0.00240884 -0.0051475)
(0.0920017 -0.0349918 -0.0129848)
(0.287241 -0.0267189 -0.00653256)
(0.308698 -0.0555297 -0.00773275)
(-0.00138754 0.00231063 -1.01504e-06)
(-0.000849245 0.000956871 0.00555991)
(-0.000267718 0.000761492 0.00485006)
(-0.000138612 0.000236302 -1.02858e-06)
(-0.000264667 0.0007596 -1.23907e-06)
(-0.000847299 0.000957202 -1.16182e-06)
(-0.00139207 0.00231363 0.00635857)
(-0.00184534 0.0116691 -2.20491e-06)
(-0.000317427 0.0040143 -1.3014e-06)
(-0.00158722 0.00975321 0.00669673)
(-0.000396409 0.00496627 0.0052575)
(-0.00158203 0.00975049 -1.42135e-06)
(-0.000393139 0.00496219 -1.84352e-06)
(-0.0018519 0.0116765 0.0069312)
(-0.00117375 0.0180193 -5.06986e-06)
(-0.000166263 0.00821549 -2.29479e-06)
(-0.0006148 0.0175948 0.00844354)
(-0.000350855 0.00874023 0.00696101)
(-0.00060476 0.0175779 -2.56429e-06)
(-0.000344873 0.00871851 -3.97015e-06)
(-0.0011898 0.0180572 0.0090578)
(0.0112067 0.00182983 -2.67943e-05)
(0.00135449 0.00912826 -5.64631e-06)
(0.00606273 0.0115814 0.0123372)
(0.003557 0.00505945 0.0110629)
(0.00610658 0.01147 -8.93209e-06)
(0.00357171 0.00497536 -1.201e-05)
(0.0111265 0.0019871 0.0130791)
(0.10471 -0.000330743 1.1929e-07)
(0.0347174 -6.13136e-05 0.000315234)
(0.105306 -5.07352e-05 0.000232201)
(0.0352101 -5.41127e-06 9.04278e-07)
(0.0347188 -6.06858e-05 -5.79639e-08)
(0.104709 -0.000330964 0.000419826)
(0.105317 -5.34532e-05 1.33589e-06)
(0.105603 -0.000297364 7.60298e-07)
(0.0349602 -5.02226e-06 6.97562e-07)
(0.0350262 -6.06218e-05 0.00113913)
(0.105387 -4.35354e-05 0.00122591)
(0.0350287 -6.04177e-05 4.38963e-07)
(0.105395 -4.45977e-05 1.00027e-06)
(0.1056 -0.000296686 0.00148903)
(0.107619 -0.000426011 1.29617e-06)
(0.0356294 -1.41817e-05 1.02586e-06)
(0.0357572 -8.31771e-05 0.00206959)
(0.107216 -0.000125879 0.00242587)
(0.0357623 -8.35159e-05 1.00073e-06)
(0.107225 -0.000127391 1.63993e-06)
(0.107613 -0.000424256 0.002707)
(0.111145 -0.000768257 3.35524e-06)
(0.0367056 -6.24007e-05 2.29417e-06)
(0.0370073 -0.000146315 0.00306587)
(0.110287 -0.000395665 0.00371621)
(0.0370157 -0.000147107 2.32352e-06)
(0.110301 -0.000399867 3.29812e-06)
(0.111133 -0.00076372 0.00402456)
(0.118527 -0.00182594 9.07865e-06)
(0.0388182 -0.00019483 4.88034e-06)
(0.0395927 -0.000336037 0.00415903)
(0.116375 -0.00114262 0.00515585)
(0.0396196 -0.000339232 5.95481e-06)
(0.116411 -0.00115557 7.0182e-06)
(0.118482 -0.00180841 0.00553807)
(0.144783 -0.0153024 3.49938e-05)
(0.0464229 -0.00236596 1.27351e-05)
(0.0540497 -0.00575032 0.00574593)
(0.134347 -0.00819312 0.00708105)
(0.0542027 -0.00581223 2.1088e-05)
(0.134483 -0.00827421 2.08237e-05)
(0.144622 -0.015141 0.00788182)
(0.205362 -0.105701 0.0102152)
(0.324 -0.102346 0.0086919)
(0.328433 -0.126454 0.00876624)
(0.176906 -0.0847872 -0.0103911)
(0.205257 -0.105521 -0.0102494)
(0.323767 -0.102388 -0.00871997)
(0.328346 -0.126353 -0.00877057)
(-0.00184769 0.00479621 -1.72359e-06)
(-0.00042622 0.00289686 -1.59333e-06)
(-0.000388796 0.00175372 0.00481475)
(-0.00201016 0.0070917 0.00644261)
(-0.000386315 0.00175158 -1.45433e-06)
(-0.0020046 0.00709119 -1.93316e-06)
(-0.00185285 0.004801 0.0063452)
(-0.00138746 0.00230654 -2.13338e-06)
(-0.000138897 0.000235796 -1.04312e-06)
(-0.00084702 0.000954499 -0.00555699)
(-0.000267115 0.000759143 -0.0048479)
(-0.000265016 0.000758129 -1.02036e-06)
(-0.000847343 0.000955447 -1.57129e-06)
(-0.00138848 0.00230737 -0.00635532)
(-0.0018472 0.00478771 -1.52843e-06)
(-0.000426489 0.00289225 -9.13927e-07)
(-0.000387999 0.00174879 -0.00481254)
(-0.00200465 0.00707276 -0.0064388)
(-0.000386599 0.0017486 -8.55895e-07)
(-0.00200379 0.00707896 -1.61108e-06)
(-0.00184825 0.00478827 -0.00634184)
(-0.00184087 0.0142358 -2.21521e-06)
(-0.000523763 0.00738487 -3.24934e-06)
(-0.000419903 0.00612815 0.00552454)
(-0.00212092 0.0164831 0.00765847)
(-0.000415915 0.00612055 -2.00092e-06)
(-0.00211111 0.0164725 -4.69882e-06)
(-0.00184856 0.0142503 0.00728531)
(-0.00184436 0.0116457 -2.53299e-06)
(-0.000317748 0.00400749 -1.52513e-06)
(-0.00158093 0.00972471 -0.00669248)
(-0.00039504 0.00495052 -0.00525428)
(-0.0015813 0.00973186 -2.60204e-06)
(-0.000393544 0.00495339 -1.49593e-06)
(-0.00184414 0.0116392 -0.0069264)
(-0.00184089 0.0142044 -3.51825e-06)
(-0.000524517 0.00737166 -1.54756e-06)
(-0.000418569 0.00610743 -0.00552081)
(-0.00210919 0.0164199 -0.00765148)
(-0.000416685 0.00610938 -1.97196e-06)
(-0.00211039 0.0164355 -2.22557e-06)
(-0.00184015 0.0141997 -0.00727942)
(-0.00109895 0.0181102 -5.3601e-06)
(-0.000490568 0.0105494 -8.92016e-06)
(-0.000456807 0.00948495 0.00759834)
(-0.000789536 0.018559 0.0105488)
(-0.000447659 0.00944872 -5.00256e-06)
(-0.000756903 0.0184911 -1.54863e-05)
(-0.00112309 0.0181821 0.00982531)
(-0.00117146 0.0179584 -4.68135e-06)
(-0.000166527 0.00819826 -3.3342e-06)
(-0.000598586 0.0175075 -0.00843535)
(-0.000346475 0.0086929 -0.00695425)
(-0.000603219 0.0175275 -5.39243e-06)
(-0.000345027 0.00869718 -2.98916e-06)
(-0.00116753 0.0179446 -0.00904784)
(-0.00109929 0.0180336 -7.08725e-06)
(-0.000488432 0.0105168 -1.91856e-06)
(-0.000451183 0.00942117 -0.00758989)
(-0.000730182 0.0183622 -0.0105303)
(-0.000448033 0.00942221 -3.6625e-06)
(-0.000745592 0.0183983 -1.98678e-06)
(-0.00109436 0.0180314 -0.00981228)
(0.0285172 -0.0191125 -2.99787e-05)
(0.0421874 -0.0286694 -6.64074e-05)
(0.0134798 -0.00702012 0.0130401)
(0.0596099 -0.0419598 0.0149863)
(0.0135829 -0.00719181 -1.51112e-05)
(0.0599599 -0.0421664 -7.52919e-05)
(0.0283445 -0.0188835 0.0147305)
(0.0113073 0.00161625 -3.63428e-06)
(0.00136882 0.00907399 -6.30051e-06)
(0.00620428 0.0112755 -0.0123137)
(0.00366405 0.00478028 -0.0110382)
(0.00615905 0.0113307 -1.08655e-05)
(0.00360599 0.00486864 -4.66077e-06)
(0.0114055 0.00149481 -0.0130396)
(0.0287084 -0.0193912 -3.0547e-05)
(0.0424605 -0.028909 -5.62945e-05)
(0.0138018 -0.00754057 -0.012959)
(0.0606502 -0.0425275 -0.0148786)
(0.0136699 -0.00738705 -2.1319e-05)
(0.0602527 -0.042403 -3.02888e-05)
(0.0289219 -0.0195509 -0.0146524)
(0.10468 -0.000226837 2.95964e-07)
(0.0348118 -0.000100182 7.99522e-08)
(0.0346343 -4.46393e-05 0.000484277)
(0.10498 -0.000458734 0.000892965)
(0.0346372 -4.41008e-05 1.14276e-07)
(0.104987 -0.000458526 1.40293e-07)
(0.104675 -0.00022724 0.00065285)
(0.104716 -0.000330641 1.72926e-07)
(0.0352133 -5.40365e-06 -8.56057e-07)
(0.0347231 -6.1307e-05 -0.000315456)
(0.105316 -5.06829e-05 -0.00023223)
(0.0347218 -6.06303e-05 2.54722e-07)
(0.104719 -0.000331178 -0.000420124)
(0.105323 -5.3236e-05 -1.31402e-06)
(0.104686 -0.000226638 1.25096e-07)
(0.0348152 -0.000100171 3.77265e-07)
(0.0346401 -4.47246e-05 -0.000484636)
(0.104991 -0.000459563 -0.000893598)
(0.0346405 -4.40375e-05 2.05579e-07)
(0.104994 -0.000458524 4.86455e-07)
(0.104685 -0.000227578 -0.000653275)
(0.106086 -0.000229981 9.94682e-07)
(0.0354232 -0.000107881 5.66544e-07)
(0.035194 -4.20139e-05 0.00135771)
(0.106575 -0.000520402 0.00206746)
(0.0351954 -4.19772e-05 6.81279e-07)
(0.106581 -0.000521149 8.43681e-07)
(0.106081 -0.000228846 0.0017933)
(0.105611 -0.000297345 6.19071e-07)
(0.0349636 -5.11132e-06 8.85431e-08)
(0.0350312 -6.05208e-05 -0.00114001)
(0.1054 -4.50267e-05 -0.00122682)
(0.0350314 -6.01776e-05 4.16334e-07)
(0.105402 -4.47022e-05 -1.23907e-07)
(0.105612 -0.000297991 -0.00149048)
(0.106095 -0.00022997 4.15814e-07)
(0.0354271 -0.00010768 8.26622e-07)
(0.0351992 -4.22449e-05 -0.00135879)
(0.106591 -0.00052274 -0.00206956)
(0.0351989 -4.18621e-05 3.65954e-07)
(0.106592 -0.000521295 1.10511e-06)
(0.106096 -0.000230539 -0.00179478)
(0.108406 -0.000382844 2.04117e-06)
(0.0363424 -0.000141435 1.6184e-06)
(0.036017 -6.51972e-05 0.00230349)
(0.109138 -0.000725853 0.00333774)
(0.0360218 -6.55948e-05 1.43375e-06)
(0.109149 -0.000728542 2.35929e-06)
(0.108395 -0.000380287 0.0030379)
(0.107637 -0.000425783 1.33446e-06)
(0.0356353 -1.38066e-05 5.12224e-07)
(0.0357709 -8.39687e-05 -0.00207183)
(0.107238 -0.00012758 -0.00242824)
(0.0357698 -8.33696e-05 1.04991e-06)
(0.107238 -0.000126666 6.00522e-07)
(0.10764 -0.00042748 -0.00270971)
(0.108428 -0.000382266 1.53823e-06)
(0.0363521 -0.00014095 1.8184e-06)
(0.036033 -6.58282e-05 -0.00230629)
(0.109177 -0.000731832 -0.00334278)
(0.0360312 -6.51804e-05 1.15013e-06)
(0.109174 -0.000728622 2.4109e-06)
(0.108431 -0.000384106 -0.00304163)
(0.112653 -0.000776842 4.52956e-06)
(0.0380626 -0.000223993 3.62752e-06)
(0.0374998 -0.000127891 0.00332127)
(0.113994 -0.00123493 0.00474379)
(0.0375097 -0.000129412 3.27694e-06)
(0.114018 -0.00124305 5.501e-06)
(0.112633 -0.000769878 0.00439692)
(0.11118 -0.000768054 3.23214e-06)
(0.0367168 -6.16654e-05 1.71315e-06)
(0.037034 -0.000147928 -0.00307081)
(0.110334 -0.000402076 -0.00372214)
(0.0370297 -0.000146397 2.39517e-06)
(0.110329 -0.000399036 2.33672e-06)
(0.11119 -0.000772851 -0.00403134)
(0.112699 -0.000776786 3.93008e-06)
(0.0380824 -0.000222965 3.76135e-06)
(0.0375333 -0.000130392 -0.00332766)
(0.114087 -0.00125346 -0.00475481)
(0.0375273 -0.000128642 2.84683e-06)
(0.114072 -0.00124421 5.10758e-06)
(0.11271 -0.0007827 -0.00440569)
(0.122287 -0.00253969 1.1366e-05)
(0.042666 -0.000980653 9.86868e-06)
(0.0408784 -0.000469291 0.00444482)
(0.126193 -0.00433314 0.00655884)
(0.0409158 -0.000475387 7.64638e-06)
(0.126285 -0.00437651 1.69874e-05)
(0.122215 -0.00251199 0.00601041)
(0.118604 -0.00183118 7.60243e-06)
(0.0388425 -0.000193639 4.24642e-06)
(0.0396691 -0.00034594 -0.00417083)
(0.116499 -0.00116906 -0.00516929)
(0.0396488 -0.000338809 5.67686e-06)
(0.116478 -0.00115704 6.19043e-06)
(0.11864 -0.00185111 -0.00555503)
(0.122383 -0.002551 1.06673e-05)
(0.0427048 -0.000983822 8.78772e-06)
(0.040975 -0.00048625 -0.00445963)
(0.126474 -0.0044514 -0.00658497)
(0.0409472 -0.000476119 7.38196e-06)
(0.126399 -0.00439985 1.12772e-05)
(0.122427 -0.00258154 -0.00603255)
(0.162924 -0.030805 3.95205e-05)
(0.0917351 -0.0347643 9.96912e-05)
(0.0715419 -0.0153463 0.0070991)
(0.178045 -0.0529382 0.0112654)
(0.0718744 -0.0155678 4.47986e-05)
(0.178236 -0.0536187 3.01987e-05)
(0.16272 -0.0304473 0.00861126)
(0.144912 -0.0154265 2.38087e-05)
(0.0464645 -0.00237719 1.2339e-05)
(0.0543994 -0.00591216 -0.00578211)
(0.134735 -0.00842038 -0.00712009)
(0.0542522 -0.00584418 2.04009e-05)
(0.134616 -0.00833529 1.89419e-05)
(0.145129 -0.0155862 -0.00793498)
(0.162955 -0.0310702 5.52187e-05)
(0.0918806 -0.0349483 1.83155e-05)
(0.0718967 -0.0157501 -0.00718242)
(0.178269 -0.0540106 -0.0112793)
(0.0718425 -0.0156495 5.97886e-05)
(0.178227 -0.0538846 3.31374e-05)
(0.163135 -0.0313344 -0.00869027)
)
;

boundaryField
{
    fixedWalls
    {
        type            noSlip;
    }
    frontAndBack
    {
        type            empty;
    }
    right
    {
        type            zeroGradient;
    }
    left
    {
        type            fixedValue;
        value           uniform (0.4 0 0);
    }
    model
    {
        type            noSlip;
    }
}


// ************************************************************************* //
