/*--------------------------------*- C++ -*----------------------------------*\
  =========                 |
  \\      /  F ield         | OpenFOAM: The Open Source CFD Toolbox
   \\    /   O peration     | Website:  https://openfoam.org
    \\  /    A nd           | Version:  7
     \\/     M anipulation  |
\*---------------------------------------------------------------------------*/
FoamFile
{
    version     2.0;
    format      ascii;
    class       volScalarField;
    location    "1";
    object      p;
}
// * * * * * * * * * * * * * * * * * * * * * * * * * * * * * * * * * * * * * //

dimensions      [0 2 -2 0 0 0 0];

internalField   nonuniform List<scalar> 
1161
(
0.0639144
-0.126527
-0.431568
-0.794679
-1.25393
-1.86369
-2.68537
-3.7793
-5.1906
-6.94271
-9.01616
-11.1881
-13.1221
-14.6622
-15.842
-16.7823
-17.6237
-18.5566
-20.246
-24.9297
0.0147704
-0.236718
-0.58747
-0.991223
-1.49668
-2.15737
-3.02884
-4.16369
-5.59383
-7.32639
-9.34806
-11.3934
-13.1382
-14.5024
-15.589
-16.5202
-17.3866
-18.2505
-19.2414
-20.644
-0.00540148
-0.268825
-0.620567
-1.02068
-1.52547
-2.19475
-3.09111
-4.27666
-5.79934
-7.70159
-9.98857
-12.1597
-13.7371
-14.7723
-15.5655
-16.2818
-16.9522
-17.5679
-18.0601
-18.2876
-0.0212404
-0.257626
-0.568533
-0.930169
-1.40281
-2.0544
-2.95802
-4.18733
-5.83226
-8.06331
-11.0828
-13.6505
-14.958
-15.4154
-15.7385
-16.1237
-16.5478
-16.9507
-17.2275
-17.1664
-0.0373018
-0.215748
-0.447252
-0.738408
-1.14979
-1.75388
-2.62432
-3.80588
-5.31961
-7.38687
-10.5928
-14.773
-16.8276
-16.3404
-16.101
-16.1188
-16.3094
-16.5786
-16.8124
-16.84
-0.0508983
-0.146365
-0.265494
-0.454362
-0.770416
-1.2864
-2.07309
-3.12704
-3.98083
-5.60301
-7.5835
-18.7848
-17.2294
-16.4535
-16.1866
-16.205
-16.3953
-16.6608
-16.923
-0.0623037
-0.0562657
-0.0389682
-0.0952634
-0.272059
-0.634391
-1.28685
-2.26643
-3.20325
-3.93514
-18.8164
-17.2701
-16.5613
-16.2255
-16.1498
-16.2797
-16.5794
-17.0653
-0.072577
0.0442832
0.209907
0.309035
0.320823
0.232846
-0.490913
-1.23378
-2.35929
-18.2583
-17.1526
-16.597
-16.2582
-16.1208
-16.1845
-16.4692
-17.0688
-0.0804906
0.14241
0.451461
0.709555
0.91021
1.03127
0.812297
-0.205784
-18.0224
-17.2012
-16.6655
-16.3015
-16.1001
-16.0753
-16.2781
-16.8382
-0.0835774
0.222418
0.648131
1.04911
1.51814
1.7333
1.80417
-18.1052
-17.3347
-16.7368
-16.3199
-16.0423
-15.9052
-15.9632
-16.3348
-0.0816853
0.259983
0.753112
1.2426
1.86615
2.54387
2.88274
-17.8137
-17.2385
-16.6954
-16.2422
-15.884
-15.6198
-15.4885
-15.5616
-0.0852341
0.196869
0.634597
1.08261
1.73182
2.96866
4.05928
-18.6235
-18.1181
-17.6067
-17.0567
-16.5222
-16.0346
-15.5957
-15.2
-14.8608
-14.581
-0.114296
-0.0379815
0.115691
0.175
0.164074
1.74411
-21.6696
-19.6284
-18.4511
-17.8376
-17.3012
-16.7634
-16.2314
-15.7179
-15.2127
-14.7016
-14.1708
-13.539
-0.176239
-0.433839
-0.790249
-1.54058
-3.26421
-5.6667
-15.3747
-22.2701
-19.7084
-18.4972
-17.8338
-17.3134
-16.8346
-16.353
-15.8674
-15.3729
-14.8474
-14.2686
-13.5993
-12.6768
-0.249379
-0.849256
-1.69243
-3.05798
-5.53341
-9.68215
-14.7588
-17.2256
-17.4022
-17.0907
-16.8046
-16.5311
-16.2297
-15.8969
-15.5356
-15.1344
-14.6649
-14.0977
-13.3781
-12.2882
-0.303685
-1.1584
-2.3005
-3.8036
-5.89968
-8.75452
-12.0928
-14.3399
-15.2482
-15.5526
-15.6723
-15.7004
-15.6488
-15.5335
-15.3632
-15.1286
-14.8014
-14.3463
-13.6973
-12.6265
-0.329567
-1.33149
-2.61343
-4.09323
-5.86238
-8.00108
-10.3723
-12.2919
-13.5011
-14.227
-14.706
-15.0318
-15.2398
-15.3578
-15.404
-15.3795
-15.2651
-15.0285
-14.6149
-13.8096
-0.333261
-1.40039
-2.72909
-4.16798
-5.75451
-7.51291
-9.37621
-11.0608
-12.3802
-13.3629
-14.1001
-14.6542
-15.0661
-15.3718
-15.602
-15.7768
-15.9015
-15.9841
-15.962
-15.7925
-0.315661
-1.38471
-2.70181
-4.1052
-5.60775
-7.21585
-8.89183
-10.4918
-11.8823
-13.0187
-13.9148
-14.6055
-15.1311
-15.5338
-15.8567
-16.1454
-16.4525
-16.8112
-17.4031
-18.6363
-0.250244
-1.25402
-2.5191
-3.89578
-5.38611
-6.99827
-8.70401
-10.3934
-11.91
-13.1723
-14.1654
-14.914
-15.4606
-15.8525
-16.1388
-16.3748
-16.635
-17.0645
-18.3377
-22.8608
-13.2804
-9.01391
-16.645
-10.5929
-13.2865
-9.01219
-16.7037
-16.044
-18.0163
-18.7245
-14.779
-16.0478
-18.0234
-18.7287
-6.16631
-3.91656
-5.59984
-6.15996
-3.91341
-14.9076
-7.57026
-15.034
-19.6926
-20.6934
-19.6937
-20.6809
-17.9885
-19.0765
-18.5813
-18.7854
-17.9888
-19.0764
-18.5817
-3.6046
-1.86668
-3.20283
-3.60594
-1.86413
-3.93419
-19.9317
-19.9328
-18.2353
-18.5374
-18.2321
-18.8194
-18.2359
-18.5378
-18.2326
-2.38176
0.144742
-1.23365
-2.38121
0.144293
-2.35853
-17.8799
-18.0009
-17.834
-18.2592
-17.8804
-18.0001
-17.8342
-0.140238
1.47388
1.98177
0.81202
-0.141627
1.4742
1.98853
-0.206418
-17.8352
-18.0705
-17.8074
-18.0217
-17.8353
-18.069
-17.8073
2.60669
1.80421
2.6043
-18.464
-18.4632
-18.0702
-17.7813
-17.7464
-18.1062
-18.0706
-17.7814
-17.7468
2.79153
2.68356
3.13341
2.54454
2.79256
2.68454
3.13481
3.76577
2.87903
3.76757
-17.5252
-18.2121
-17.5213
-18.2134
-18.7001
-17.8439
-18.0173
-18.7001
-17.8443
-18.0175
3.78035
2.48222
5.01416
2.96968
3.78269
2.48345
5.01496
4.06114
-19.9553
-19.9568
-20.1079
-19.3749
-19.0715
-20.1079
-19.3757
-19.0718
-18.8141
-18.3067
-18.2782
-18.623
-18.8142
-18.3067
-18.2783
5.48979
-1.57317
-5.95816
1.74637
5.49256
-1.57255
-5.99133
-26.0161
-26.0165
-21.3727
-24.5161
-22.3938
-21.373
-24.5203
-22.3948
-20.3344
-20.5651
-20.084
-21.6691
-20.3343
-20.5653
-20.0841
-22.0836
-16.3165
-19.2629
-15.3897
-22.0813
-16.3156
-19.263
-7.01946
-7.59262
-9.12859
-5.74205
-9.19085
-5.70232
-6.98282
-20.3427
-20.3353
-2.69318
-1.55703
-2.07045
-2.26622
-2.69282
-1.55677
-2.06979
-3.94213
-5.51749
-2.17316
-5.53666
-2.15764
-18.7863
-18.8096
-18.6612
-18.8123
-18.6611
-18.8157
-18.778
-0.858339
0.222033
-0.157885
-0.491004
-0.858404
0.221846
-0.158193
-2.36905
-18.0882
-18.2576
-18.1507
-18.129
-18.1491
-18.1294
-18.087
-0.221299
1.27095
1.28528
-17.9852
-18.0218
-17.9802
-18.0589
-17.9802
-18.058
-17.9861
1.81949
2.16543
2.31765
1.73336
1.81953
2.16565
2.31769
2.3524
1.80086
1.54679
2.2912
1.53112
2.2984
2.34671
-18.0934
-18.1065
-18.1997
-18.082
-18.2052
-18.0808
-18.0903
3.50314
2.87955
2.85868
3.42461
2.84978
3.43387
3.49357
-17.991
-18.7315
-17.8217
-18.7321
-17.8181
-18.0016
4.06059
4.25478
4.25009
-19.5324
-19.2468
-19.2342
-19.5287
-23.182
-23.1983
-20.5628
-21.6751
-21.1786
-20.9788
-21.1828
-20.969
-20.5807
-19.635
-19.2892
-18.8976
-19.6286
-19.6353
-19.2893
-18.8978
-11.2079
-8.17438
-11.9829
-5.66701
-11.2099
-8.17471
-11.9831
-20.168
-15.2569
-27.4267
-17.1695
-27.6176
-17.1555
-20.1802
-22.2128
-20.0745
-20.1398
-22.271
-22.2135
-20.0749
-20.1401
-12.1015
-16.7163
-15.154
-10.3598
-15.1671
-10.2903
-12.1299
-12.1061
-16.7408
-15.178
-10.3642
-15.1773
-10.2961
-12.1406
-16.4756
-18.0316
-15.735
-17.9358
-15.7192
-17.9166
-16.4867
-16.4794
-18.0358
-15.7459
-17.944
-15.7225
-17.92
-16.4963
-4.94903
-4.66101
-2.93795
-4.6348
-2.93226
-4.92606
-4.94532
-4.6388
-2.93538
-4.62819
-2.93252
-4.91563
-15.0018
-8.70965
-8.64948
-5.73639
-5.70792
-7.05204
-7.58091
-9.14156
-5.71923
-9.19524
-5.6875
-7.04499
-15.0558
-8.70085
-8.64254
-5.66005
-5.66631
-22.0098
-19.6673
-20.2226
-21.1244
-20.204
-21.1357
-22.006
-20.6956
-20.3708
-20.3579
-20.3416
-20.3343
-22.0101
-19.6686
-20.2238
-21.1236
-20.2049
-21.1365
-22.0056
-20.6944
-20.367
-20.3583
-2.83045
-1.86087
-2.63548
-1.63244
-2.64905
-1.61526
-2.81839
-3.19703
-4.43252
-2.7035
-4.45383
-2.70214
-3.19469
-2.82911
-1.85968
-2.63402
-1.62661
-2.64833
-1.61232
-2.81575
-3.19569
-4.44914
-2.68747
-4.46198
-2.69368
-3.19231
-3.94134
-5.51632
-2.17224
-5.5355
-2.15713
-19.9337
-19.9347
-18.554
-18.5387
-18.707
-18.4505
-18.7078
-18.4521
-18.5555
-18.7866
-18.8104
-18.6627
-18.8146
-18.6612
-18.8163
-18.7797
-18.5543
-18.5389
-18.7082
-18.451
-18.708
-18.4523
-18.5566
-1.11945
-2.39849
-1.82458
-1.76857
-1.82983
-1.76889
-1.13194
-1.14809
0.162881
-0.54638
-0.369048
-0.547174
-0.368018
-1.13412
-1.18186
-1.18021
-1.11936
-2.39823
-1.82418
-1.76826
-1.82961
-1.76879
-1.1317
-1.14809
0.162794
-0.546674
-0.369274
-0.547235
-0.368021
-1.13434
-1.18178
-1.18015
-2.36875
-18.015
-17.9999
-18.0446
-17.9588
-18.0446
-17.958
-18.0143
-18.0882
-18.2578
-18.1514
-18.1297
-18.1493
-18.1295
-18.0876
-18.0148
-17.9998
-18.045
-17.9584
-18.0448
-17.9578
-18.0146
1.04811
-0.162995
0.369961
0.961226
0.363751
0.967159
1.03995
1.18338
1.99399
0.733797
2.03072
0.712982
2.04758
1.19094
1.04764
-0.16328
0.369044
0.957492
0.363549
0.966144
1.03823
1.1826
1.99567
0.726375
2.03486
0.710912
2.04903
1.18878
-0.221311
1.26905
1.28486
-18.0291
-18.069
-18.1089
-17.9795
-18.1097
-17.9761
-18.0279
-17.9849
-18.0221
-17.98
-18.0575
-17.9805
-18.0576
-17.9854
-18.029
-18.0689
-18.1087
-17.9787
-18.1098
-17.9761
-18.0275
2.46931
1.70325
1.6951
2.46055
2.30805
2.60758
2.39873
2.54111
2.39819
2.53694
2.31331
2.3526
1.80097
1.5469
2.29099
1.53114
2.29841
2.34695
2.46998
1.70376
1.69501
2.46183
2.30778
2.60663
2.39767
2.53639
2.39783
2.53496
2.3124
-18.6479
-18.6553
-18.4666
-18.6574
-18.2319
-18.6654
-18.2266
-18.6505
-18.6564
-18.4664
-18.6559
-18.2315
-18.6648
-18.2267
-18.0937
-18.1067
-18.2006
-18.0832
-18.2055
-18.081
-18.0911
3.76845
3.51632
3.51896
3.50929
2.87771
2.84631
3.43153
2.84336
3.43727
3.50584
3.76929
3.52044
3.52092
-17.8804
-17.8757
-18.387
-17.5119
-18.2701
-18.266
-18.3922
-18.7049
-18.2014
-18.4809
-18.2832
-18.4885
-18.2705
-18.6975
-17.8819
-17.8763
-18.3851
-17.5104
-18.2677
-18.265
-18.388
-18.7085
-18.202
-18.4843
-18.2845
-18.49
-18.2712
-18.7047
-17.9911
-18.7317
-17.8221
-18.7321
-17.8181
-18.0019
3.68534
3.7791
3.54175
4.03535
3.54061
4.02689
3.69119
3.81949
5.00845
4.58479
3.71952
4.58388
3.69705
3.82506
3.6857
3.78041
3.54384
4.03492
3.54197
4.02652
3.69185
3.81979
5.00839
4.5844
3.7212
4.58351
3.69751
3.82587
4.06157
4.25432
4.24963
-20.4227
-20.4136
-19.7306
-19.9573
-20.2209
-19.7509
-20.2357
-19.7341
-19.7411
-20.4205
-20.4126
-19.7279
-19.9582
-20.2281
-19.7476
-20.2394
-19.7327
-19.7355
-18.696
-20.1368
-18.9988
-19.0058
-18.9895
-19.0024
-18.7156
-19.9756
-19.3581
-19.6022
-19.3156
-19.5958
-19.3054
-19.9549
-19.5326
-19.2475
-19.2346
-19.5292
-18.696
-20.1366
-18.9991
-19.0058
-18.9896
-19.0023
-18.7159
-19.976
-19.3585
-19.6046
-19.3161
-19.597
-19.3057
-19.9558
2.33464
5.49096
3.89722
4.52047
3.89005
4.52524
2.36848
0.558909
-6.06762
1.66967
-3.8369
1.69902
-3.86827
0.552457
2.33718
5.49101
3.90099
4.53333
3.89121
4.52686
2.37702
0.562301
-6.07502
1.6851
-3.84639
1.70168
-3.87139
0.561595
-26.0305
-26.1314
-26.5851
-26.1187
-26.5949
-26.0315
-26.1341
-26.5826
-26.1229
-26.592
-22.6419
-21.3678
-21.5986
-21.5893
-22.6419
-24.5328
-24.5084
-25.84
-23.3331
-25.8496
-23.3058
-24.526
-23.1824
-23.2009
-22.642
-21.368
-21.5992
-21.5896
-22.6427
-24.5341
-24.5093
-25.8499
-23.3361
-25.8514
-23.3064
-24.5316
-20.5626
-21.6749
-21.1779
-20.9786
-21.1825
-20.9689
-20.5804
-20.1636
-15.2625
-27.4069
-17.1691
-27.6111
-17.1551
-20.1718
)
;

boundaryField
{
    fixedWalls
    {
        type            zeroGradient;
    }
    frontAndBack
    {
        type            empty;
    }
    right
    {
        type            fixedValue;
        value           uniform 0;
    }
    left
    {
        type            zeroGradient;
    }
    model
    {
        type            zeroGradient;
    }
}


// ************************************************************************* //
