/*--------------------------------*- C++ -*----------------------------------*\
  =========                 |
  \\      /  F ield         | OpenFOAM: The Open Source CFD Toolbox
   \\    /   O peration     | Website:  https://openfoam.org
    \\  /    A nd           | Version:  7
     \\/     M anipulation  |
\*---------------------------------------------------------------------------*/
FoamFile
{
    version     2.0;
    format      ascii;
    class       surfaceScalarField;
    location    "1";
    object      phi;
}
// * * * * * * * * * * * * * * * * * * * * * * * * * * * * * * * * * * * * * //

dimensions      [0 3 -1 0 0 0 0];

internalField   nonuniform List<scalar> 
2879
(
1.53015e-05
-2.12075e-06
1.73376e-05
-2.03604e-06
1.96663e-05
-2.32873e-06
2.26996e-05
-3.03333e-06
2.67216e-05
-4.02199e-06
3.18511e-05
-5.12951e-06
3.8003e-05
-6.15185e-06
4.4872e-05
-6.86903e-06
5.19199e-05
-7.04795e-06
5.80862e-05
-6.16623e-06
6.11615e-05
-3.07532e-06
5.97468e-05
1.41469e-06
5.50485e-05
4.69829e-06
4.93237e-05
5.72477e-06
4.44491e-05
4.87465e-06
4.17082e-05
2.74086e-06
4.2439e-05
-7.30736e-07
4.90132e-05
-6.57421e-06
6.69059e-05
-1.78927e-05
-3.30299e-05
4.07588e-05
-5.20884e-06
4.44233e-05
-5.70046e-06
4.91774e-05
-7.08288e-06
5.54953e-05
-9.35123e-06
6.37476e-05
-1.22742e-05
7.40708e-05
-1.54527e-05
8.62634e-05
-1.83444e-05
9.97703e-05
-2.0376e-05
0.000113723
-2.10003e-05
0.000126528
-1.8972e-05
0.000134105
-1.06519e-05
0.000133434
2.08521e-06
0.000126091
1.20416e-05
0.000115979
1.58365e-05
0.000106376
1.44784e-05
9.93774e-05
9.73919e-06
9.62265e-05
2.42011e-06
9.76157e-05
-7.96337e-06
0.000101821
-2.20984e-05
-3.11339e-05
5.91744e-05
-8.26184e-06
6.30449e-05
-9.57089e-06
6.83845e-05
-1.24225e-05
7.56889e-05
-1.66556e-05
8.53082e-05
-2.18936e-05
9.73327e-05
-2.74772e-05
0.000111431
-3.24423e-05
0.000126952
-3.58978e-05
0.000143239
-3.72866e-05
0.00015896
-3.46934e-05
0.000168796
-2.04881e-05
0.000167657
3.22498e-06
0.000158307
2.13915e-05
0.000146608
2.75355e-05
0.000135656
2.54297e-05
0.000126873
1.85229e-05
0.000120696
8.5963e-06
0.000116188
-3.45496e-06
0.000110287
-1.61973e-05
-2.07518e-05
7.03328e-05
-1.07017e-05
7.35534e-05
-1.27915e-05
7.82662e-05
-1.71353e-05
8.49663e-05
-2.33557e-05
9.39608e-05
-3.08881e-05
0.000105192
-3.87085e-05
0.00011798
-4.52306e-05
0.000131385
-4.93026e-05
0.000145206
-5.11076e-05
0.000159637
-4.91242e-05
0.000168549
-8.91582e-06
-5.78775e-06
-8.91429e-06
-5.78168e-06
0.00016305
3.75888e-07
3.98147e-06
3.80693e-07
3.98523e-06
0.00015026
3.41821e-05
0.000140104
3.76913e-05
0.000132157
3.3376e-05
0.000126129
2.45511e-05
0.000121418
1.33071e-05
0.000116734
1.22902e-06
0.000109638
-9.1013e-06
-1.09893e-05
7.51562e-05
-1.20715e-05
7.71716e-05
-1.48069e-05
8.0449e-05
-2.04127e-05
8.54236e-05
-2.83302e-05
9.22879e-05
-3.77524e-05
0.000100657
-4.70773e-05
0.000108936
-5.35095e-05
0.000114689
-5.50564e-05
0.000118007
-5.44249e-05
3.0552e-05
-1.14237e-05
2.42996e-05
3.05494e-05
2.42859e-05
-8.97712e-06
-1.14271e-05
-8.97645e-06
3.21513e-05
-1.05151e-05
8.20156e-12
-3.19962e-05
3.1285e-05
5.02187e-10
6.26973e-07
-8.42333e-08
-8.20965e-08
6.25955e-07
9.94732e-05
7.78997e-06
-2.85103e-05
-2.00692e-05
-2.85061e-05
-2.00644e-05
8.13914e-06
7.79015e-06
8.13963e-06
0.0001007
3.64642e-05
0.000102836
3.12403e-05
0.000104867
2.252e-05
0.000106384
1.17899e-05
0.000106685
9.28238e-07
0.000104441
-6.85687e-06
-6.4006e-06
7.5289e-05
-1.20448e-05
7.56983e-05
-1.52162e-05
7.69369e-05
-2.16513e-05
7.92865e-05
-3.06799e-05
8.27626e-05
-4.12285e-05
8.65249e-05
-5.08396e-05
8.79763e-05
-5.49609e-05
7.93971e-05
-1.23997e-05
-1.08385e-05
-1.24001e-05
-1.08389e-05
1.71319e-05
-8.73605e-06
1.13505e-05
1.71278e-05
1.13461e-05
-7.2568e-06
-8.73633e-06
-7.25494e-06
1.50119e-05
-9.30342e-06
-2.90503e-10
1.7657e-06
-3.05633e-06
1.89109e-10
2.67923e-06
-1.38879e-06
-1.95829e-06
9.14433e-06
4.85066e-06
4.35044e-11
-1.95973e-06
-1.14404e-06
-1.143e-06
5.36637e-05
1.93521e-05
-1.09309e-05
-7.34462e-06
-1.09311e-05
-7.34501e-06
6.67347e-05
1.81693e-05
7.73445e-05
1.19101e-05
8.61819e-05
2.95246e-06
9.323e-05
-6.11981e-06
9.80384e-05
-1.16653e-05
-8.1962e-06
7.28078e-05
-1.04455e-05
7.13262e-05
-1.37346e-05
7.00216e-05
-2.03467e-05
6.89346e-05
-2.95929e-05
6.79387e-05
-4.02325e-05
6.61896e-05
-4.90906e-05
1.55075e-05
-1.18332e-05
1.27048e-05
1.55075e-05
1.27043e-05
-1.07647e-05
-1.1833e-05
-1.07644e-05
1.40296e-05
-1.09217e-05
-1.77305e-11
8.10902e-06
-3.17405e-11
-1.18348e-05
-1.0965e-06
-1.40906e-06
-1.40911e-06
-1.09559e-06
9.55786e-07
-1.02526e-06
1.52278e-10
7.94238e-07
-7.24912e-07
-4.07486e-07
-5.29218e-08
-1.22216e-10
2.43403e-07
2.17128e-07
2.55261e-05
3.90472e-06
-2.99141e-06
-2.0484e-06
-2.99094e-06
-2.04799e-06
4.119e-05
2.50546e-06
5.60112e-05
-2.91108e-06
6.96681e-05
-1.07044e-05
8.20583e-05
-1.851e-05
9.2804e-05
-2.2411e-05
-1.52202e-05
6.99894e-05
-7.27159e-06
6.64705e-05
-1.02158e-05
6.22538e-05
-1.61299e-05
5.71103e-05
-2.44495e-05
5.06948e-05
-3.3817e-05
1.14506e-05
-4.00051e-05
9.3539e-06
1.14506e-05
9.35431e-06
1.02621e-05
-1.06448e-05
7.35648e-12
-8.56732e-12
8.45382e-06
-8.43806e-06
1.01571e-06
1.43498e-06
1.43627e-06
1.01474e-06
-1.04102e-06
-1.41791e-06
-1.4186e-06
-1.03993e-06
6.30326e-07
-6.30386e-07
5.91555e-11
2.27425e-08
-7.55239e-12
4.75579e-09
-2.74908e-08
1.47642e-05
-7.82494e-06
-8.02759e-07
-7.14805e-07
-8.02438e-07
-7.1457e-07
2.96567e-05
-1.2387e-05
4.54224e-05
-1.86768e-05
6.09919e-05
-2.62739e-05
7.59734e-05
-3.34915e-05
8.99045e-05
-3.63421e-05
-2.51537e-05
6.91409e-05
-2.67359e-06
6.36337e-05
-4.70858e-06
5.63527e-05
-8.8489e-06
4.68588e-05
-1.49556e-05
3.57656e-05
-2.27238e-05
6.21641e-06
-6.6342e-06
4.84173e-06
6.21646e-06
4.84122e-06
-6.54348e-06
-6.63441e-06
-6.54328e-06
-6.68363e-06
2.03805e-11
8.68112e-06
9.61567e-07
1.14731e-06
1.14854e-06
9.61479e-07
8.22627e-07
-4.90773e-07
1.93979e-10
-3.32048e-07
3.58818e-08
-6.50084e-12
8.63538e-09
-4.45107e-08
1.63035e-05
-1.94589e-05
-9.81072e-07
-1.35356e-06
-9.81112e-07
-1.35378e-06
3.0623e-05
-2.67065e-05
4.58648e-05
-3.39187e-05
6.10194e-05
-4.14284e-05
7.57117e-05
-4.81839e-05
8.96206e-05
-5.0251e-05
-3.53992e-05
7.24804e-05
2.98203e-06
6.52857e-05
2.48618e-06
5.50608e-05
1.37601e-06
4.08401e-05
-7.34969e-07
6.22183e-06
-5.06887e-06
5.37077e-06
6.2219e-06
5.37069e-06
4.44294e-06
-4.85531e-06
-5.37475e-12
1.16664e-06
-7.2949e-07
6.60397e-11
5.62737e-07
-9.99954e-07
1.57408e-07
1.94626e-11
1.77406e-07
-3.34834e-07
2.8971e-05
-3.30329e-05
-3.21705e-06
-4.48142e-06
-3.21701e-06
-4.48148e-06
4.27909e-05
-4.05264e-05
5.63473e-05
-4.74751e-05
6.9102e-05
-5.41831e-05
8.08909e-05
-5.99728e-05
9.17653e-05
-6.11253e-05
-4.35359e-05
8.20026e-05
9.0758e-06
7.3847e-05
1.06417e-05
6.14547e-05
1.37684e-05
4.30559e-05
1.76638e-05
4.897e-06
1.89186e-05
4.63813e-06
4.89631e-06
4.63703e-06
2.48577e-06
-3.47706e-07
-5.19996e-11
2.75899e-06
4.31615e-07
-2.20505e-07
5.17332e-11
8.4916e-08
-2.96078e-07
4.09848e-05
-3.57329e-05
4.39134e-06
5.40907e-06
4.39094e-06
5.40933e-06
-5.04014e-06
-7.38658e-06
-5.03962e-06
-7.38624e-06
5.32011e-05
-4.52492e-05
6.49068e-05
-5.2232e-05
7.52445e-05
-5.78128e-05
8.37991e-05
-6.27378e-05
9.05442e-05
-6.67179e-05
9.59413e-05
-6.65224e-05
-4.75446e-05
9.91767e-05
1.4665e-05
9.14753e-05
1.83431e-05
7.89562e-05
2.62874e-05
5.82435e-05
3.83765e-05
5.83489e-06
5.13459e-05
7.07427e-06
5.8338e-06
7.07321e-06
-2.3394e-06
6.52316e-06
-8.90444e-11
3.96486e-07
4.29223e-07
4.29139e-07
3.96377e-07
2.73644e-08
-4.27731e-08
-1.01608e-11
1.54189e-08
3.67869e-07
-6.75973e-07
5.84699e-06
-4.17599e-06
-4.01093e-11
3.67154e-07
3.51131e-07
3.51534e-07
-6.77207e-07
-8.77029e-07
-8.78437e-07
6.21808e-05
-4.02038e-05
4.61028e-06
5.57652e-06
4.61041e-06
5.57668e-06
-8.97761e-06
-1.21983e-05
-8.97688e-06
-1.21981e-05
7.53336e-05
-4.88857e-05
8.58492e-05
-5.57648e-05
9.40475e-05
-6.04303e-05
9.98014e-05
-6.35667e-05
0.000102837
-6.5773e-05
0.000103159
-6.70399e-05
0.00010152
-6.48834e-05
-4.60169e-05
0.000123853
1.86322e-05
0.000118639
2.35573e-05
0.000110207
3.47198e-05
9.52451e-05
5.33379e-05
1.32807e-05
7.97139e-05
2.01592e-05
1.32785e-05
2.01587e-05
-1.14872e-05
1.90823e-05
-1.8678e-10
1.62626e-06
1.2162e-06
1.21515e-06
1.62822e-06
-2.905e-07
6.78686e-11
7.50178e-07
-4.59746e-07
8.41442e-07
-8.98678e-06
1.24527e-05
-6.92975e-06
1.77911e-11
8.41367e-07
8.8964e-07
8.91348e-07
9.3786e-05
-4.77197e-05
6.56992e-06
7.24281e-06
6.56936e-06
7.24263e-06
-1.59881e-05
-2.08575e-05
-1.5988e-05
-2.08573e-05
0.00010706
-5.34776e-05
0.00011681
-5.8636e-05
0.000123126
-6.20811e-05
0.000126366
-6.36704e-05
0.000126508
-6.37078e-05
0.000123342
-6.2607e-05
0.000116791
-6.04892e-05
0.00010769
-5.57829e-05
-3.83646e-05
0.000152743
2.01818e-05
0.000151428
2.48721e-05
0.000150584
3.55635e-05
0.000151029
5.28931e-05
3.45988e-05
7.61264e-05
4.27092e-05
3.45989e-05
4.27097e-05
-2.46871e-05
3.44132e-05
2.48727e-05
2.10263e-11
-1.01954e-05
-8.41361e-10
7.46398e-06
2.7323e-06
1.17342e-06
-2.42601e-05
2.50878e-05
-5.35572e-06
6.60753e-11
1.17319e-06
1.09049e-06
1.09083e-06
0.000137828
-3.74888e-05
6.88216e-06
7.71491e-06
6.88212e-06
7.71479e-06
-2.75306e-05
-3.72358e-05
-2.75306e-05
-3.7236e-05
0.000146482
-4.74438e-05
9.52488e-06
9.86965e-06
9.52489e-06
9.86973e-06
0.000152854
-5.40908e-05
0.00015789
-5.85141e-05
0.000160361
-6.11067e-05
0.000160097
-6.18174e-05
0.000157071
-6.06441e-05
0.00015111
-5.77473e-05
0.000141884
-5.33805e-05
0.000129089
-4.76946e-05
0.000113365
-4.0059e-05
-2.50754e-05
0.000179402
1.92962e-05
0.000181437
2.28365e-05
0.000186351
3.06504e-05
0.000197272
4.19712e-05
0.000218527
5.48724e-05
0.000242478
5.80333e-05
-2.19639e-05
-1.90294e-05
-2.19631e-05
-1.90283e-05
0.000242504
2.97699e-05
-1.12805e-05
-3.61786e-06
-1.12792e-05
-3.61817e-06
0.000229815
-4.09654e-06
3.17632e-06
5.21563e-06
3.17659e-06
5.21612e-06
0.000219116
-2.67888e-05
0.00021234
-4.06677e-05
0.000207224
-4.89753e-05
0.000202257
-5.35476e-05
0.00019637
-5.52197e-05
0.000188983
-5.44297e-05
0.00017979
-5.14512e-05
0.000168478
-4.64352e-05
0.000154568
-3.94702e-05
0.000137459
-3.05857e-05
0.000117355
-1.9955e-05
-7.83682e-06
0.000196242
1.65684e-05
0.000200265
1.88134e-05
0.000207293
2.36231e-05
0.000219202
3.00617e-05
0.000237552
3.65226e-05
0.00025865
3.69354e-05
0.000267106
2.13136e-05
0.000263701
-6.91187e-07
0.000255685
-1.87735e-05
0.00024614
-3.11222e-05
0.000235947
-3.87827e-05
0.000225127
-4.27275e-05
0.000213558
-4.36506e-05
0.000201165
-4.20363e-05
0.000187879
-3.81652e-05
0.000173545
-3.21016e-05
0.000157702
-2.36269e-05
0.000139534
-1.24175e-05
0.000118625
9.5348e-07
1.06365e-05
0.000196211
1.26393e-05
0.000201197
1.38272e-05
0.000208527
1.62934e-05
0.000219168
1.94201e-05
0.000233719
2.19715e-05
0.000249663
2.09918e-05
0.000258907
1.20699e-05
0.000259461
-1.24564e-06
0.000253924
-1.32363e-05
0.00024468
-2.18788e-05
0.000233061
-2.71629e-05
0.00021992
-2.95865e-05
0.00020589
-2.96205e-05
0.000191497
-2.76433e-05
0.000177132
-2.38002e-05
0.000162958
-1.79279e-05
0.00014876
-9.42901e-06
0.000133759
2.58331e-06
0.000116509
1.82036e-05
2.69594e-05
0.000173814
8.08131e-06
0.000179225
8.41685e-06
0.000186281
9.23739e-06
0.000195371
1.03291e-05
0.00020636
1.09832e-05
0.000217542
9.80993e-06
0.000224584
5.02794e-06
0.000225311
-1.97306e-06
0.000220435
-8.36007e-06
0.000211471
-1.29155e-05
0.000199769
-1.54604e-05
0.000186498
-1.63158e-05
0.000172675
-1.57976e-05
0.000159155
-1.4123e-05
0.000146657
-1.13024e-05
0.000135694
-6.9641e-06
0.000126662
-3.97913e-07
0.000118855
1.0391e-05
0.000110609
2.64493e-05
3.73526e-05
0.000125639
3.41517e-06
0.000130825
3.23032e-06
0.000136877
3.18547e-06
0.000143876
3.3298e-06
0.000151493
3.36652e-06
0.000158518
2.78486e-06
0.000162461
1.08502e-06
0.000161833
-1.34511e-06
0.000156869
-3.39561e-06
0.000148661
-4.70804e-06
0.000138483
-5.28202e-06
0.000127453
-5.28579e-06
0.00011653
-4.87468e-06
0.000106527
-4.1206e-06
9.82018e-05
-2.97693e-06
9.24031e-05
-1.1654e-06
9.00073e-05
1.99796e-06
9.23921e-05
8.00616e-06
9.87945e-05
2.00468e-05
3.59011e-05
5.04861e-05
5.37164e-05
5.69019e-05
6.02317e-05
6.35982e-05
6.63831e-05
6.74681e-05
6.6123e-05
6.27274e-05
5.80194e-05
5.27373e-05
4.74515e-05
4.25769e-05
3.84563e-05
3.54793e-05
3.43139e-05
3.63119e-05
4.43181e-05
6.43649e-05
5.12327e-10
-1.65636e-06
-1.16301e-06
-1.16194e-06
-1.65184e-06
-1.28115e-10
-1.76812e-06
-1.5214e-06
-1.52324e-06
5.75662e-06
4.42361e-06
4.42776e-06
5.75501e-06
4.31119e-06
-1.30832e-06
1.23421e-09
9.27758e-07
-3.93186e-06
3.21443e-05
-1.05091e-05
3.19907e-05
-1.65473e-06
-1.16208e-06
-1.16232e-06
-1.6484e-06
-1.76773e-06
5.75548e-06
4.4197e-06
4.42717e-06
5.75279e-06
-1.76909e-06
-1.51996e-06
-1.5217e-06
4.30353e-06
-1.30073e-06
6.38972e-10
9.26391e-07
-3.92983e-06
6.75585e-06
3.06419e-10
2.1978e-10
1.71685e-08
4.2938e-06
3.09586e-10
1.29561e-06
-5.27557e-06
-3.75973e-06
-3.7612e-06
-5.27778e-06
1.29702e-06
1.08303e-06
1.08493e-06
3.12782e-05
6.27435e-07
-8.10699e-08
-7.96799e-08
6.26944e-07
6.7577e-06
1.78326e-10
1.41277e-08
4.28922e-06
1.29536e-06
-5.27428e-06
-3.75682e-06
-3.75997e-06
-5.27511e-06
1.29689e-06
1.08278e-06
1.08475e-06
-6.17204e-10
3.05747e-06
2.17065e-06
2.17139e-06
-1.36263e-06
-8.48239e-07
-8.49354e-07
-1.36027e-06
-2.79082e-10
-9.61027e-07
-7.94135e-07
-7.93904e-07
1.68734e-06
1.08883e-06
1.08853e-06
1.68755e-06
1.50025e-05
-9.30208e-06
3.05515e-06
-1.36234e-06
-8.51342e-07
-8.51283e-07
-1.3601e-06
3.05633e-06
2.16871e-06
2.17027e-06
-9.55423e-07
1.68609e-06
1.08781e-06
1.08793e-06
1.68548e-06
-9.60631e-07
-7.9389e-07
-7.93579e-07
2.03631e-10
-1.30852e-06
2.20044e-10
2.66945e-06
-1.38225e-06
4.59599e-11
-1.30078e-06
-4.97656e-10
-1.69094e-06
1.02875e-06
2.2736e-07
5.29251e-08
1.58994e-11
-2.80301e-07
1.95774e-06
-4.917e-10
-1.69023e-06
1.02835e-06
2.26707e-07
5.30465e-08
9.524e-11
-2.79849e-07
6.35255e-06
2.52623e-11
4.27757e-06
-6.36853e-12
4.05866e-07
4.796e-07
4.80278e-07
-2.26858e-07
-3.72447e-07
-3.73466e-07
2.88317e-11
3.28547e-06
9.14446e-06
4.84963e-06
-1.95943e-06
-1.14384e-06
-1.14289e-06
6.35305e-06
4.27663e-06
4.06959e-07
-2.26846e-07
-3.724e-07
-3.73509e-07
4.0585e-07
4.79333e-07
4.80316e-07
3.28469e-06
1.11252e-10
1.02996e-06
7.24834e-07
7.24766e-07
-6.94819e-07
-6.31838e-07
-6.31378e-07
-6.9468e-07
-1.37352e-06
-1.46054e-10
1.0397e-06
9.64291e-07
8.10713e-06
-1.18343e-05
-1.09634e-06
-1.40866e-06
-1.40888e-06
-1.0953e-06
1.02486e-06
-6.94437e-07
-6.31637e-07
-6.31205e-07
-6.93971e-07
1.02959e-06
7.24633e-07
7.24467e-07
-6.30153e-07
-1.37281e-06
-1.11843e-10
1.03958e-06
9.63494e-07
1.55578e-10
7.93993e-07
-7.24709e-07
3.29162e-12
5.30435e-08
3.02333e-12
1.71772e-06
4.08332e-11
-3.18824e-07
-3.93014e-07
-3.929e-07
-3.1896e-07
1.75323e-11
-8.61712e-09
3.13421e-08
4.26494e-11
2.1817e-07
-1.50198e-07
-1.24413e-07
-1.24092e-07
-1.50189e-07
-1.62495e-10
2.43381e-07
2.16784e-07
1.71736e-06
-3.18859e-07
-3.92916e-07
-3.92899e-07
-3.18889e-07
-2.27878e-08
1.40608e-11
-8.50832e-09
3.12821e-08
2.18042e-07
-1.50167e-07
-1.2428e-07
-1.24114e-07
-1.5007e-07
1.04172e-06
3.9331e-10
-1.04538e-06
-6.27121e-07
-9.3981e-07
-4.79615e-10
1.08889e-06
6.74029e-07
8.45342e-06
-8.4374e-06
1.01568e-06
1.43466e-06
1.43608e-06
1.01472e-06
-1.04105e-06
-1.41765e-06
-1.41845e-06
-1.04002e-06
6.30215e-07
1.04164e-06
4.00312e-10
-1.04515e-06
-6.27101e-07
-8.2247e-07
-9.39759e-07
-4.89206e-10
1.0887e-06
6.74014e-07
6.1963e-11
-4.56983e-07
3.29705e-11
-2.94913e-08
-3.42849e-08
-3.43977e-08
-2.94645e-08
-9.50912e-12
3.28659e-08
3.02549e-09
1.37934e-11
-1.07533e-06
-2.31712e-08
-2.51361e-08
-2.51108e-08
-2.30574e-08
-1.43847e-11
4.8234e-09
-2.75969e-08
-4.56601e-07
-2.94918e-08
-3.43012e-08
-3.444e-08
-2.9529e-08
-3.59525e-08
-2.97238e-12
3.31209e-08
2.83458e-09
-1.0748e-06
-2.31757e-08
-2.50112e-08
-2.4993e-08
-2.31787e-08
1.37666e-06
3.72758e-10
-9.02749e-07
-9.65055e-07
-2.84926e-11
-1.16747e-06
-9.36689e-07
-9.37207e-07
6.73836e-07
5.09785e-07
5.09416e-07
6.73099e-07
-3.80724e-11
2.74646e-07
-2.74608e-07
-6.68196e-06
8.67985e-06
9.61549e-07
1.1472e-06
1.14838e-06
9.61473e-07
4.90773e-07
1.37642e-06
3.54755e-10
-9.02612e-07
-9.64938e-07
-1.16623e-06
6.7361e-07
5.10196e-07
5.09781e-07
6.72612e-07
-1.16729e-06
-9.3639e-07
-9.37055e-07
-2.23208e-11
2.75206e-07
-2.75184e-07
1.86208e-10
-3.31883e-07
-1.86473e-06
3.57667e-12
-4.94756e-08
-4.63731e-08
-4.62673e-08
-4.95565e-08
-2.20649e-11
8.73991e-08
7.0031e-08
-1.32101e-11
-2.70658e-06
-1.03856e-07
-1.51807e-07
-1.52008e-07
-1.04025e-07
3.93224e-12
8.71677e-09
-4.46732e-08
-1.86433e-06
-4.93651e-08
-4.63532e-08
-4.64297e-08
-4.94322e-08
-1.57564e-07
-1.4153e-12
8.7385e-08
7.01801e-08
-2.70648e-06
-1.03782e-07
-1.51922e-07
-1.51995e-07
-1.03946e-07
-3.1133e-07
-1.51164e-11
6.12536e-07
1.30424e-07
-7.2929e-07
6.45094e-11
5.62556e-07
-9.99565e-07
-4.30984e-07
-3.1168e-07
-3.95734e-11
6.11815e-07
1.30888e-07
3.9964e-07
-4.52848e-07
6.74263e-11
4.12384e-07
-3.59243e-07
3.99758e-07
-4.52798e-07
8.11324e-11
4.12208e-07
-3.5925e-07
-4.38013e-06
3.63079e-11
-4.33441e-07
-3.38176e-07
-3.37961e-07
-4.33962e-07
3.4525e-06
1.20082e-11
6.65669e-07
4.91995e-07
4.91272e-07
6.65824e-07
-4.01309e-07
-2.87485e-07
-2.87504e-07
2.65617e-11
7.90922e-12
1.77444e-07
-3.35016e-07
-4.37984e-06
-4.3345e-07
-3.38218e-07
-3.38078e-07
-4.3386e-07
3.45197e-06
-4.01357e-07
-2.87572e-07
-2.8756e-07
6.65669e-07
4.92369e-07
4.91491e-07
6.65702e-07
-1.20285e-06
-7.83687e-11
2.89902e-06
2.2068e-07
1.74418e-07
1.7407e-07
1.9511e-06
-8.14212e-11
-1.05026e-10
6.80452e-08
1.31496e-08
6.80715e-08
1.02861e-07
1.02773e-07
1.34465e-08
1.89835e-07
1.90181e-07
2.48495e-06
-3.48264e-07
2.75957e-06
-1.20292e-06
2.2075e-07
2.89916e-06
2.20788e-07
1.73488e-07
1.73615e-07
1.94997e-06
2.33872e-06
6.78091e-08
1.29931e-08
6.79565e-08
1.02312e-07
1.02505e-07
1.34044e-08
1.89774e-07
1.90182e-07
-3.31078e-11
9.54427e-08
2.13868e-11
8.45421e-08
-2.94798e-07
-2.72098e-08
-2.12492e-11
9.50402e-08
-7.61445e-11
3.67945e-07
1.00269e-06
-6.30689e-07
-2.01459e-10
4.45786e-07
-8.17587e-07
-3.67064e-07
-6.23992e-11
3.67126e-07
1.00254e-06
-6.30991e-07
-2.14287e-10
4.45739e-07
-8.17077e-07
-4.31884e-06
-2.3811e-12
-6.91552e-07
-4.82013e-07
-4.82113e-07
-6.91088e-07
4.54263e-07
3.59207e-07
3.59149e-07
6.12891e-06
2.93402e-11
5.70916e-07
4.0565e-07
4.05533e-07
5.69782e-07
-1.00394e-06
-7.32234e-07
-7.31683e-07
1.41507e-11
-4.31847e-06
4.54244e-07
3.59217e-07
3.5911e-07
-6.91441e-07
-4.8204e-07
-4.82109e-07
-6.90927e-07
6.12802e-06
-1.00377e-06
-7.31735e-07
-7.31401e-07
5.70897e-07
4.05673e-07
4.05526e-07
5.69775e-07
2.01657e-11
-1.64683e-07
1.35039e-07
-1.03865e-10
4.63427e-07
5.91946e-07
5.91597e-07
4.63339e-07
4.86111e-07
7.91085e-11
-3.46842e-07
-1.39348e-07
6.52178e-06
3.96357e-07
4.29095e-07
4.29112e-07
3.96086e-07
4.24112e-08
3.68466e-11
-1.64699e-07
1.35244e-07
1.14849e-05
4.63399e-07
5.91818e-07
5.9154e-07
4.632e-07
4.8582e-07
9.10661e-11
-3.46532e-07
-1.39379e-07
-3.3097e-12
1.52047e-08
9.8842e-07
-5.98004e-07
3.28973e-11
3.15525e-07
-7.05975e-07
9.88273e-07
-5.98116e-07
2.30492e-11
3.14843e-07
-7.05023e-07
3.96389e-10
-2.7232e-07
-4.04049e-07
-2.93997e-10
4.83361e-07
1.3468e-06
2.58953e-11
8.12004e-06
-4.72886e-06
4.78839e-07
5.84509e-07
5.87217e-07
4.79366e-07
-1.18531e-06
-1.57493e-06
-1.57562e-06
-1.18529e-06
6.75826e-07
3.9499e-10
-2.72286e-07
-4.03935e-07
-8.41546e-07
-3.00088e-10
4.83708e-07
1.34641e-06
8.1194e-06
-4.72829e-06
4.78788e-07
5.8416e-07
5.86942e-07
4.79317e-07
-1.18505e-06
-1.57488e-06
-1.57557e-06
-1.1848e-06
-5.55844e-06
9.49689e-12
6.31704e-07
5.82266e-07
5.83152e-07
1.0514e-05
-4.32598e-12
3.91076e-12
5.84713e-06
-4.17507e-06
3.66727e-07
3.50567e-07
3.51215e-07
-6.7705e-07
-8.76633e-07
-8.78164e-07
-5.5582e-06
6.31807e-07
5.82465e-07
5.8319e-07
1.05137e-05
-1.48077e-11
-3.84324e-07
8.7045e-07
-4.80651e-11
2.94972e-06
4.32613e-06
4.33053e-06
2.94803e-06
6.6039e-06
1.66464e-09
-3.17777e-06
-3.4278e-06
1.90761e-05
1.62671e-06
1.21638e-06
1.21552e-06
1.62853e-06
1.94394e-11
-3.84508e-07
8.70308e-07
2.46819e-05
2.95074e-06
4.32401e-06
4.32887e-06
2.94929e-06
6.604e-06
1.27362e-09
-3.18206e-06
-3.42321e-06
1.78731e-06
-8.69841e-07
2.78862e-10
4.53553e-07
-1.37131e-06
1.78716e-06
-8.70417e-07
2.89673e-10
4.53107e-07
-1.37014e-06
-1.5593e-11
-2.90484e-07
-1.33115e-10
6.4217e-07
2.3187e-06
7.04734e-11
1.1535e-05
-5.07547e-06
4.34513e-07
5.26281e-07
5.25776e-07
4.34845e-07
-1.60692e-06
-2.58301e-06
-2.58194e-06
-1.60915e-06
2.90393e-07
-1.59274e-11
-2.90377e-07
-1.17302e-06
-1.91784e-10
6.42276e-07
2.31809e-06
1.15334e-05
-5.07413e-06
4.34472e-07
5.26147e-07
5.25676e-07
4.34833e-07
-1.60693e-06
-2.58278e-06
-2.58165e-06
-1.60895e-06
-5.72955e-06
-3.2372e-12
-1.68292e-06
-1.0958e-06
-1.09484e-06
-1.68288e-06
5.99336e-07
5.51367e-07
5.50512e-07
1.46717e-05
2.08436e-11
1.01687e-06
8.55764e-07
8.5635e-07
1.01643e-06
1.52315e-11
1.66571e-05
7.1656e-11
7.49975e-07
-4.59654e-07
-5.72828e-06
8.98608e-06
5.9936e-07
5.50765e-07
5.50142e-07
-1.68269e-06
-1.09606e-06
-1.09493e-06
-1.68252e-06
1.46706e-05
1.01673e-06
8.55686e-07
8.56287e-07
1.0162e-06
1.66571e-05
-6.74453e-07
-1.85613e-10
-7.80591e-06
-6.2185e-06
-6.24516e-06
-7.79556e-06
8.67838e-07
1.37136e-06
1.37065e-06
4.60102e-05
-6.75103e-11
-4.73404e-05
-2.03076e-06
-2.93718e-06
-2.94041e-06
-2.04193e-06
8.60061e-12
4.17179e-05
-1.01944e-05
-9.10869e-10
7.46334e-06
2.73194e-06
-6.69801e-07
2.42573e-05
8.68225e-07
1.37019e-06
1.37006e-06
-7.80477e-06
-6.22109e-06
-6.24745e-06
-7.79332e-06
4.6006e-05
-4.73392e-05
-2.02963e-06
-2.93655e-06
-2.94002e-06
-2.03987e-06
4.1718e-05
1.3499e-06
-1.34987e-06
-2.29351e-10
2.06455e-10
2.67509e-06
-1.3853e-06
-2.51518e-10
1.46056e-09
-1.35025e-06
2.50662e-06
-8.88319e-10
1.35048e-06
-5.67724e-07
2.5031e-06
1.07037e-10
-5.64328e-07
-3.41867e-10
-3.20084e-11
-1.37567e-06
1.37571e-06
-1.37513e-06
1.37511e-06
-4.34758e-12
-8.64369e-06
-3.09918e-11
1.02369e-05
-2.07466e-11
-5.39984e-11
1.37252e-06
1.82761e-06
1.82804e-06
-1.04285e-06
-1.36119e-06
-1.36261e-06
1.4029e-05
-1.09217e-05
-8.64424e-06
1.0236e-05
1.37211e-06
1.82698e-06
1.82771e-06
-1.04276e-06
-1.36101e-06
-1.36251e-06
7.93794e-07
-7.24691e-07
-1.81859e-11
1.03471e-10
-7.77813e-11
-6.40136e-12
-2.61219e-12
-3.2956e-07
-1.52193e-07
-1.71453e-10
1.63094e-07
6.6178e-12
2.42188e-07
2.16765e-07
-5.32219e-08
1.24735e-11
-2.74479e-12
3.29992e-07
6.43237e-11
1.52294e-07
6.47693e-08
3.1496e-12
6.46275e-08
9.14436e-12
1.63154e-07
-8.94075e-06
4.94777e-12
7.39025e-06
1.41843e-11
2.29111e-11
9.40381e-07
1.27905e-06
1.28012e-06
-1.37761e-06
-1.61733e-06
-1.61828e-06
1.0262e-05
-1.06444e-05
-8.93979e-06
7.38977e-06
9.40305e-07
1.279e-06
1.28012e-06
-1.37749e-06
-1.61711e-06
-1.61815e-06
6.30856e-07
-6.30795e-07
-1.81242e-12
5.3487e-08
-3.08105e-09
-2.02088e-11
-7.98764e-08
-6.2174e-13
4.73911e-09
-2.75064e-08
2.27577e-08
2.05645e-12
-2.77347e-11
-5.34664e-08
2.39651e-08
3.80375e-12
3.02116e-09
-3.05157e-08
2.37977e-08
2.93701e-12
-3.05851e-08
1.46805e-12
-7.993e-08
-3.32114e-07
8.23303e-07
-4.90995e-07
1.47523e-13
-2.75856e-11
-3.3202e-07
-3.32142e-07
7.86021e-13
1.60462e-07
-1.15867e-08
1.5141e-11
-1.9836e-07
-5.40791e-12
8.63142e-09
-4.45635e-08
3.59222e-08
3.3618e-12
7.46658e-13
-1.60487e-07
1.22749e-07
-9.02001e-12
1.16733e-08
-5.6175e-08
1.22823e-07
4.04006e-12
-5.61559e-08
-3.32479e-12
-1.98355e-07
-4.7454e-06
-3.38051e-12
7.30359e-07
5.92436e-07
5.92581e-07
3.27447e-06
-1.73097e-11
-2.74383e-12
3.11773e-07
4.02348e-07
4.02646e-07
4.44322e-06
-4.85574e-06
-4.7448e-06
7.30312e-07
5.9252e-07
5.92617e-07
3.27451e-06
3.11972e-07
4.02481e-07
4.0273e-07
6.78309e-07
-3.81373e-07
1.23794e-10
2.21034e-07
-5.18089e-07
-4.51945e-12
5.62966e-07
-1.00001e-06
-2.29337e-12
2.83647e-10
-6.78611e-07
3.04376e-07
-1.37929e-10
3.81595e-07
-7.88974e-07
3.04351e-07
-3.60567e-13
-7.88943e-07
-1.65069e-13
2.21051e-07
-5.17943e-07
5.13531e-07
-2.81244e-07
-6.36178e-11
4.17407e-12
1.77368e-07
-3.34748e-07
1.57397e-07
2.84041e-12
1.05125e-10
-5.13774e-07
3.52898e-07
-2.62082e-11
2.81975e-07
-1.24787e-07
3.53038e-07
5.04427e-12
-1.24752e-07
4.81997e-12
7.6621e-08
-7.66281e-08
1.94224e-11
-1.23148e-11
8.46625e-08
-2.95198e-07
4.31237e-07
3.09812e-11
6.75909e-11
-7.68995e-08
1.61748e-07
-1.93458e-10
7.68801e-08
-1.98347e-07
1.61302e-07
4.93288e-11
-1.97876e-07
-7.29686e-11
4.8211e-07
-6.02997e-07
2.49486e-10
2.17235e-12
3.29555e-12
-4.82016e-07
-4.51607e-11
6.03072e-07
-1.97377e-07
2.10572e-13
-1.97511e-07
9.36832e-13
1.54671e-08
2.70648e-08
-4.25346e-08
-7.55942e-12
9.58898e-12
1.54093e-08
1.54758e-08
9.32326e-13
-2.18011e-07
-4.50776e-11
4.89721e-07
-2.71667e-07
2.3481e-12
-3.85155e-11
2.17935e-07
-2.17896e-07
-2.18051e-07
1.12211e-12
4.88993e-07
-2.71104e-07
5.0053e-11
3.13421e-07
-3.13472e-07
1.06178e-12
3.13095e-07
-3.13045e-07
7.1278e-07
-1.3792e-06
3.71721e-10
-3.34879e-12
7.50526e-07
-4.60174e-07
-2.90282e-07
-2.6048e-12
9.5423e-11
-7.14056e-07
3.68335e-07
-1.799e-10
1.38014e-06
-9.83941e-07
3.68575e-07
-8.01735e-12
-9.83198e-07
-1.63308e-12
-8.26429e-06
1.77892e-11
1.92522e-05
9.58584e-12
9.92273e-12
1.24516e-05
-6.92976e-06
8.41391e-07
8.89863e-07
8.91474e-07
-8.26471e-06
1.92523e-05
2.07518e-05
1.46873e-10
1.02153e-05
8.79945e-06
8.80502e-06
-6.61396e-06
-5.56775e-06
-5.56839e-06
4.5618e-05
2.91211e-11
1.3696e-11
3.44096e-05
2.48711e-05
2.07497e-05
-6.6141e-06
-5.56643e-06
-5.56822e-06
1.02155e-05
8.79841e-06
8.80458e-06
4.56178e-05
-1.2363e-06
-8.60051e-06
2.24753e-10
-8.34227e-11
7.47837e-06
2.7361e-06
4.12232e-11
2.99612e-09
1.24249e-06
-2.00616e-10
8.59477e-06
-9.54191e-11
-6.22913e-12
-7.51832e-06
5.08854e-11
3.95385e-05
4.03317e-11
2.40581e-11
2.50858e-05
-5.35587e-06
1.17306e-06
1.09052e-06
1.09094e-06
-7.51894e-06
3.95388e-05
5.79301e-06
-1.69332e-06
4.99036e-10
7.90211e-11
9.28637e-07
-3.93023e-06
4.37994e-10
4.30821e-06
-1.30583e-06
2.20556e-10
-5.79506e-06
5.55959e-06
-1.00898e-09
1.69139e-06
-1.19864e-06
1.76857e-10
5.55976e-06
8.34243e-11
-1.19689e-06
5.79138e-06
-1.69116e-06
6.04582e-10
9.2887e-07
-3.93083e-06
4.30399e-06
-1.30095e-06
-1.19986e-11
-5.79215e-06
5.55648e-06
-9.88175e-10
1.68715e-06
-1.1963e-06
5.5581e-06
-1.19573e-06
-5.49255e-06
8.43661e-07
2.19233e-10
7.4126e-11
1.52184e-08
4.29315e-06
6.14923e-11
-2.73283e-10
5.4928e-06
-4.10553e-10
-8.4119e-07
5.37561e-11
7.15764e-11
-5.49127e-06
8.44174e-07
3.32408e-10
1.32017e-08
4.29103e-06
-4.02839e-10
5.48994e-06
-5.13895e-10
-8.42106e-07
1.37502e-06
1.37479e-06
1.4139e-06
-1.0885e-06
-5.99175e-10
-8.9921e-11
-3.35662e-10
-1.41555e-06
5.67643e-07
-3.4693e-11
1.08886e-06
-8.02192e-11
5.6429e-07
1.56086e-12
1.41235e-06
-1.08791e-06
-7.75938e-10
-1.36032e-10
-1.41243e-06
5.61219e-07
-1.74649e-11
1.08783e-06
5.60852e-07
-1.30574e-06
1.15837e-10
-5.36622e-10
-6.12114e-11
-8.17965e-11
-1.19688e-10
1.34886e-06
-1.34861e-06
-4.3724e-11
2.66858e-06
-1.38137e-06
1.2561e-09
-1.34831e-06
2.49655e-06
-7.04505e-10
1.34836e-06
-5.61201e-07
2.4971e-06
-5.6075e-07
-1.30079e-06
-5.22584e-10
1.77892e-11
-7.68757e-07
7.68776e-07
-2.05528e-11
1.85333e-12
-1.69093e-06
1.02769e-06
2.8441e-11
-3.36915e-10
7.6814e-07
2.64153e-10
-7.68119e-07
6.52562e-07
1.64314e-11
6.53712e-07
1.75412e-11
-2.80054e-07
-8.91837e-12
5.32202e-08
-1.86524e-10
5.82805e-12
-3.14472e-11
1.37505e-06
1.37475e-06
-7.68715e-07
7.68741e-07
-2.46621e-11
-1.69045e-06
1.02746e-06
-3.4385e-10
7.67939e-07
3.01448e-10
-7.67915e-07
6.52123e-07
6.53624e-07
-2.79995e-07
5.32357e-08
-1.25345e-10
-1.4581e-06
-6.13014e-07
-1.99173e-10
9.7484e-07
-2.26556e-11
1.03887e-06
9.64383e-07
-3.09029e-11
2.82786e-10
1.45796e-06
-1.95491e-10
6.12999e-07
3.51488e-07
-1.56303e-11
3.51207e-07
-3.42416e-11
9.75172e-07
6.31313e-07
-3.51226e-07
-4.17525e-11
-2.48936e-11
1.04082e-10
-6.31942e-07
-3.44455e-12
3.51491e-07
3.99149e-11
-2.15643e-11
-1.45789e-06
-6.12756e-07
-2.20353e-10
9.74499e-07
1.03877e-06
9.63964e-07
-6.30769e-07
2.97975e-10
1.45761e-06
-1.62624e-10
6.12515e-07
3.51141e-07
3.51011e-07
9.74606e-07
6.31102e-07
-3.51005e-07
-5.99484e-11
6.25503e-11
-6.317e-07
1.56459e-11
3.51126e-07
7.93482e-07
-7.24389e-07
1.03592e-10
-7.57384e-11
1.60538e-12
5.32403e-08
-5.60366e-08
6.88982e-08
3.01627e-11
4.67627e-12
-8.59757e-09
3.13702e-08
2.56054e-12
1.06594e-11
5.61415e-08
3.10418e-11
-6.91369e-08
4.03875e-12
4.6996e-12
-3.29585e-07
-1.52198e-07
-1.43304e-10
1.63073e-07
2.42193e-07
2.16748e-07
-2.82326e-11
3.29826e-07
3.18747e-11
1.52185e-07
6.45671e-08
6.45905e-08
1.62979e-07
-5.60186e-08
6.88831e-08
4.69534e-11
-8.57332e-09
3.13745e-08
-2.27846e-08
-2.56033e-12
5.60614e-08
2.58865e-11
-6.9017e-08
-2.40065e-08
-2.38256e-08
9.71925e-07
6.27549e-07
1.99512e-10
-5.83958e-07
-1.43407e-12
-1.04569e-06
-6.27551e-07
-6.33468e-12
1.02994e-10
-9.71691e-07
1.74173e-12
-6.27122e-07
-4.64438e-12
-5.63393e-13
-5.8387e-07
-9.50336e-07
-6.74389e-07
-2.45567e-10
5.83954e-07
7.61267e-14
1.08881e-06
6.74397e-07
2.09945e-12
1.62097e-11
9.5001e-07
-7.29278e-12
6.74037e-07
1.12734e-12
2.24601e-14
5.83874e-07
-3.7679e-12
-1.93582e-13
9.71865e-07
6.27535e-07
1.97152e-10
-5.83919e-07
-1.04553e-06
-6.27537e-07
6.30709e-07
1.0657e-10
-9.7161e-07
2.9207e-12
-6.27104e-07
-5.83799e-07
-9.50344e-07
-6.74378e-07
-2.41845e-10
5.83915e-07
1.08866e-06
6.74387e-07
-8.23232e-07
1.14418e-11
9.50044e-07
-8.87766e-12
6.74023e-07
5.83803e-07
-3.72434e-12
-2.39117e-09
-1.00642e-07
-1.15475e-11
-2.56809e-12
3.2977e-08
2.93725e-09
-1.50953e-12
5.54426e-13
2.34957e-09
-1.12966e-11
1.00649e-07
1.19139e-12
-4.6057e-12
5.34977e-08
-3.11976e-09
-1.01061e-11
-7.98602e-08
4.80148e-09
-2.75984e-08
-3.65188e-11
-5.34478e-08
-1.94291e-12
3.10334e-09
-3.06983e-08
-3.07186e-08
-7.98836e-08
-2.41153e-09
-1.00623e-07
-3.86566e-12
3.3131e-08
2.79944e-09
-3.59349e-08
-2.02547e-12
2.4247e-09
-1.05231e-11
1.00641e-07
-1.22808e-07
-1.22832e-07
1.37318e-06
6.0819e-07
1.30388e-10
-1.01994e-06
7.24802e-12
-9.03548e-07
-9.64688e-07
4.28945e-12
1.11106e-10
-1.37289e-06
-9.17e-11
-6.08541e-07
-6.88443e-07
3.28125e-12
-6.88747e-07
1.47921e-11
-1.01982e-06
4.13682e-07
-7.59662e-07
-1.34399e-10
1.36063e-11
2.74834e-07
-2.74867e-07
-5.09781e-12
2.55421e-10
-4.14052e-07
-3.76678e-10
7.60907e-07
-5.25354e-07
2.4425e-11
-3.07202e-11
-5.2546e-07
1.37307e-06
6.08058e-07
1.50246e-10
-1.01973e-06
-9.03404e-07
-9.64724e-07
4.90999e-07
9.83029e-11
-1.37263e-06