/*--------------------------------*- C++ -*----------------------------------*\
  =========                 |
  \\      /  F ield         | OpenFOAM: The Open Source CFD Toolbox
   \\    /   O peration     | Website:  https://openfoam.org
    \\  /    A nd           | Version:  7
     \\/     M anipulation  |
\*---------------------------------------------------------------------------*/
FoamFile
{
    version     2.0;
    format      ascii;
    class       volVectorField;
    location    "1";
    object      U;
}
// * * * * * * * * * * * * * * * * * * * * * * * * * * * * * * * * * * * * * //

dimensions      [0 1 -1 0 0 0 0];

internalField   nonuniform List<vector> 
1161
(
(0.277478 -0.0185705 0)
(0.321321 -0.0160336 0)
(0.366434 -0.0168138 6.97042e-23)
(0.418468 -0.0216391 0)
(0.48768 -0.0291885 9.41356e-23)
(0.5786 -0.037853 3.80371e-22)
(0.691582 -0.0458626 -3.11747e-22)
(0.82288 -0.0512415 0)
(0.964842 -0.051547 0)
(1.10279 -0.0417343 0)
(1.20137 -0.0135288 1.51869e-21)
(1.21888 0.0220199 -3.56408e-21)
(1.15306 0.0449937 0)
(1.04233 0.0477745 0)
(0.93112 0.0353857 0)
(0.850643 0.0125153 0)
(0.825516 -0.0243245 -2.49798e-21)
(0.902234 -0.091901 -4.32919e-23)
(1.1497 -0.226364 0)
(1.27582 -0.405178 0)
(0.771 -0.0698163 -8.18117e-24)
(0.840243 -0.0717279 -5.04558e-23)
(0.926928 -0.085231 -1.84749e-22)
(1.0349 -0.111438 0)
(1.17803 -0.146949 -1.86894e-22)
(1.36267 -0.186435 2.92341e-22)
(1.58822 -0.223049 0)
(1.84718 -0.249107 0)
(2.12685 -0.255454 0)
(2.40669 -0.222442 -2.14043e-21)
(2.62613 -0.109555 -4.20842e-21)
(2.69993 0.0459157 8.06201e-22)
(2.61073 0.161922 3.9463e-21)
(2.42207 0.200549 -3.94622e-21)
(2.21368 0.174976 0)
(2.0411 0.105354 9.36976e-21)
(1.93567 -0.00519174 0)
(1.92164 -0.176858 -2.48815e-21)
(2.0021 -0.456157 -1.4249e-21)
(1.97993 -0.736241 1.40086e-21)
(1.13906 -0.134652 2.02858e-23)
(1.20815 -0.151997 -1.45283e-22)
(1.30257 -0.193048 1.28609e-22)
(1.42606 -0.256557 0)
(1.59242 -0.336995 -4.28086e-22)
(1.80756 -0.424559 -4.47844e-22)
(2.06925 -0.505552 0)
(2.36744 -0.565851 -5.25894e-21)
(2.69064 -0.591495 1.71478e-20)
(3.02475 -0.544257 -1.45473e-20)
(3.30309 -0.302038 5.53148e-21)
(3.39752 0.0504136 -1.10715e-20)
(3.27863 0.318168 -3.70092e-21)
(3.05099 0.421651 -1.72505e-20)
(2.81262 0.394615 1.78877e-20)
(2.61144 0.281394 -9.37238e-21)
(2.46288 0.106068 2.91505e-22)
(2.36304 -0.125634 -4.74678e-21)
(2.27953 -0.403719 -5.0424e-21)
(2.13855 -0.545573 1.24511e-21)
(1.37095 -0.192266 2.5014e-23)
(1.42589 -0.225967 -1.97431e-23)
(1.50652 -0.29774 -4.38679e-23)
(1.6179 -0.402272 1.01569e-21)
(1.77225 -0.530782 -3.30602e-22)
(1.97362 -0.667864 1.68106e-21)
(2.21529 -0.791213 -3.9531e-22)
(2.47968 -0.882864 2.39739e-21)
(2.75661 -0.93974 -6.59794e-21)
(3.0467 -0.917748 -6.63084e-07)
(3.30998 -0.51342 -4.37262e-07)
(3.35179 0.105297 1.90983e-06)
(3.13583 0.527921 1.35588e-06)
(2.89946 0.657987 5.35702e-20)
(2.71206 0.60853 -1.78956e-20)
(2.57408 0.453996 1.84313e-20)
(2.47133 0.23836 1.8965e-20)
(2.3843 -0.00937179 4.88382e-21)
(2.27789 -0.243562 -2.29867e-21)
(2.13604 -0.308061 1.17052e-21)
(1.48235 -0.231714 -4.34393e-24)
(1.51401 -0.27978 9.38877e-23)
(1.56669 -0.379681 -2.95921e-22)
(1.64719 -0.522068 -6.70391e-22)
(1.76414 -0.693708 9.47339e-22)
(1.9175 -0.870324 -1.49111e-21)
(2.08903 -1.01348 3.38196e-22)
(2.23426 -1.09778 -1.90311e-21)
(2.32748 -1.14782 -5.48974e-07)
(2.3776 -1.12517 -6.51038e-06)
(2.59355 -0.810062 0.138344)
(2.50213 0.105934 0.182051)
(1.97786 0.779831 -1.31219e-06)
(1.99826 0.80588 1.4192e-06)
(2.03652 0.697782 -1.86245e-20)
(2.07968 0.512457 -2.7714e-20)
(2.11721 0.285045 9.27928e-21)
(2.13887 0.0513456 -1.41113e-20)
(2.12533 -0.131749 0)
(2.06941 -0.150601 -1.18536e-21)
(1.50394 -0.245996 -8.40167e-24)
(1.50601 -0.305218 0)
(1.52065 -0.426851 4.06232e-22)
(1.55583 -0.598482 -6.98794e-22)
(1.61473 -0.801508 -5.91821e-22)
(1.69267 -0.997204 2.65686e-21)
(1.75397 -1.11332 1.43733e-07)
(1.69883 -1.10184 -3.83258e-07)
(1.46713 -0.972388 3.31054e-07)
(1.25883 -0.862671 0.0742407)
(0.986211 -0.562168 0.101415)
(0.618192 0.488858 0.2316)
(0.938772 0.583113 -7.31209e-07)
(1.21589 0.52495 3.81001e-20)
(1.45117 0.374878 2.31859e-21)
(1.64505 0.177029 0)
(1.80489 -0.0215894 7.10099e-21)
(1.92746 -0.154153 -4.72195e-21)
(1.98662 -0.121078 1.18504e-21)
(1.47562 -0.230315 8.39881e-24)
(1.44377 -0.295688 -1.69541e-24)
(1.41274 -0.428573 3.80969e-23)
(1.3898 -0.614956 1.17966e-22)
(1.37171 -0.830849 5.65075e-22)
(1.35481 -1.01796 -2.1887e-21)
(1.28981 -1.04271 -1.44262e-07)
(1.18526 -0.937378 0.0297178)
(0.803573 -0.623721 0.0393936)
(0.29163 -0.230191 0.0490809)
(0.0307631 0.0594852 0.205617)
(0.345891 0.222395 7.13781e-07)
(0.667867 0.20978 -1.47596e-22)
(0.97971 0.101094 -1.1583e-20)
(1.26517 -0.0616704 8.10381e-21)
(1.52742 -0.226818 -2.36037e-21)
(1.76376 -0.318575 8.27402e-21)
(1.91856 -0.216349 -1.76201e-21)
(1.44123 -0.182765 -4.18176e-24)
(1.37359 -0.246608 5.68919e-24)
(1.29197 -0.375582 -1.47299e-22)
(1.20001 -0.556334 1.83861e-22)
(1.08809 -0.761279 2.8259e-23)
(0.966319 -0.91215 5.47635e-08)
(0.891489 -0.894249 0.00639532)
(0.587786 -0.558733 0.0142456)
(0.0922783 -0.0769952 0.0126933)
(-0.000369768 -0.010264 0.148639)
(0.149951 -0.0516367 -3.06254e-06)
(0.437856 -0.104641 -2.42717e-21)
(0.754675 -0.216459 0)
(1.07022 -0.366948 5.75918e-21)
(1.37884 -0.514516 0)
(1.67366 -0.579716 -1.17917e-21)
(1.87999 -0.396528 5.90478e-22)
(1.44451 -0.104591 9.20702e-24)
(1.34326 -0.156412 1.70286e-23)
(1.21051 -0.261892 1.94925e-23)
(1.04399 -0.413048 -9.57292e-22)
(0.832004 -0.58974 -8.3588e-08)
(0.592076 -0.705244 -2.90977e-08)
(0.453688 -0.619659 -0.00997019)
(0.113517 -0.155248 0.00183709)
(0.00180112 -0.0147095 0.141349)
(0.193622 -0.271074 -4.42048e-06)
(0.465889 -0.393391 0)
(0.769347 -0.53109 1.85209e-20)
(1.07539 -0.683802 -1.39242e-20)
(1.37679 -0.824376 9.12485e-21)
(1.66691 -0.872975 2.36124e-21)
(1.87428 -0.60918 -3.50868e-21)
(1.52644 -0.000485191 2.06201e-23)
(1.39951 -0.0277282 -4.54827e-23)
(1.22085 -0.0862092 -1.9474e-23)
(0.975095 -0.178035 0)
(0.65483 -0.3031 1.30768e-08)
(0.410144 -0.452961 -0.0226711)
(0.193562 -0.344853 -0.0232246)
(0.033008 -0.0611699 0.177458)
(0.445668 -0.513951 -7.55849e-07)
(0.71819 -0.673188 1.93664e-20)
(0.997723 -0.822286 0)
(1.26331 -0.969874 -9.15896e-21)
(1.51079 -1.09926 -9.11367e-21)
(1.73797 -1.13276 2.30076e-21)
(1.89938 -0.802109 -2.81025e-23)
(1.72296 0.120371 3.88822e-23)
(1.58551 0.130895 -8.98131e-23)
(1.37858 0.147248 -3.9267e-22)
(1.06993 0.154201 3.52397e-21)
(0.635486 0.108174 4.07948e-07)
(0.267071 -0.120332 -0.0316796)
(0.050513 -0.11857 -0.0324266)
(0.675276 -0.571631 6.133e-06)
(0.939013 -0.781063 1.47998e-06)
(1.18592 -0.934473 -4.81534e-21)
(1.41033 -1.06606 0)
(1.60178 -1.18791 -8.95892e-21)
(1.75585 -1.29052 0)
(1.87357 -1.30263 -1.10505e-21)
(1.95075 -0.92964 -1.14552e-21)
(2.05946 0.241775 -2.07403e-23)
(1.93525 0.297769 1.89975e-22)
(1.73612 0.413113 -6.96046e-22)
(1.41174 0.573195 9.69162e-22)
(0.888274 0.6952 1.55644e-08)
(0.26276 0.35505 -0.0370326)
(0.00460461 0.000602515 -0.0280878)
(0.313009 -0.162378 0.218492)
(1.09894 -0.628991 1.57568e-06)
(1.38697 -0.858466 1.54514e-06)
(1.61969 -1.02325 2.33316e-20)
(1.80751 -1.1411 4.62617e-21)
(1.94961 -1.23125 -4.62836e-21)
(2.04011 -1.30611 8.95471e-21)
(2.07389 -1.36262 -3.18485e-21)
(2.05302 -1.34202 -1.06922e-21)
(2.02078 -0.956839 -1.96653e-21)
(2.53234 0.340384 0)
(2.44928 0.432214 0)
(2.31715 0.63569 1.91321e-22)
(2.10191 0.963975 -1.95703e-22)
(1.72264 1.37759 -2.21468e-08)
(0.738376 1.21969 -0.021791)
(0.144196 -0.0878516 0.191536)
(0.877728 -0.426152 0.231247)
(1.71081 -0.789311 -3.17107e-06)
(2.02483 -0.963261 -1.55062e-06)
(2.25458 -1.10407 -2.47266e-20)
(2.41103 -1.20242 1.20048e-20)
(2.50542 -1.26223 0)
(2.54066 -1.29305 -4.42104e-21)
(2.51317 -1.30452 0)
(2.41589 -1.29785 4.25274e-21)
(2.24818 -1.23156 3.94949e-21)
(2.09821 -0.863628 1.96573e-21)
(3.08249 0.395358 0)
(3.05672 0.495353 1.13671e-23)
(3.03506 0.723211 -3.68165e-22)
(3.04399 1.10251 1.13532e-20)
(3.14653 1.63598 2.08136e-07)
(2.79106 2.04293 0.0708554)
(2.29488 0.811483 0.125102)
(1.97577 -0.487457 0.264934)
(2.64044 -0.786906 8.52432e-07)
(2.82992 -0.956991 1.03165e-20)
(2.98728 -1.07053 -5.1666e-20)
(3.11501 -1.1656 9.65109e-21)
(3.19161 -1.2343 1.8882e-20)
(3.21254 -1.26848 -9.57217e-21)
(3.17942 -1.26704 0)
(3.09122 -1.23451 8.29922e-23)
(2.94283 -1.17727 -2.07019e-21)
(2.72324 -1.09852 4.12233e-21)
(2.42499 -0.976246 -1.0333e-21)
(2.16938 -0.649315 -9.182e-22)
(3.59007 0.400194 -3.33e-22)
(3.6135 0.482773 3.00718e-22)
(3.68 0.669663 1.76643e-22)
(3.83118 0.961685 0)
(4.11778 1.34397 -5.04475e-21)
(4.58803 1.3963 -1.05619e-06)
(4.88407 0.614855 2.51567e-06)
(4.77366 -0.170438 -1.49345e-06)
(4.46612 -0.630853 1.49451e-06)
(4.28388 -0.892638 0)
(4.17715 -1.05249 -9.48575e-21)
(4.08831 -1.14634 -9.32353e-21)
(3.98494 -1.18882 -1.85631e-20)
(3.85372 -1.1852 4.55443e-21)
(3.68918 -1.13951 0)
(3.48656 -1.05609 4.33857e-21)
(3.23879 -0.938773 -4.08986e-21)
(2.93081 -0.790377 5.63488e-23)
(2.54643 -0.607416 -1.92454e-21)
(2.21991 -0.336279 0)
(3.90642 0.36235 0)
(3.96161 0.418261 -1.96755e-21)
(4.07038 0.541511 1.97131e-21)
(4.25249 0.71394 4.51034e-21)
(4.53917 0.896001 1.68029e-20)
(4.9466 0.908916 -1.68591e-20)
(5.27876 0.495972 1.51664e-20)
(5.3417 -0.0298964 2.92939e-21)
(5.19889 -0.434031 6.41481e-21)
(5.00477 -0.704765 2.11785e-21)
(4.80652 -0.875281 0)
(4.60081 -0.968538 9.17304e-21)
(4.37972 -0.998688 0)
(4.14109 -0.975189 0)
(3.88524 -0.904524 -4.33681e-21)
(3.61118 -0.789898 4.41811e-21)
(3.31399 -0.630745 4.38595e-21)
(2.97801 -0.425109 -3.22626e-23)
(2.57963 -0.182513 -1.02334e-21)
(2.23758 0.0308599 9.19575e-22)
(3.89022 0.294238 0)
(3.96478 0.326335 0)
(4.0906 0.394678 1.52253e-21)
(4.26644 0.481531 -1.18149e-21)
(4.51041 0.554588 -5.69562e-21)
(4.82401 0.535199 3.62353e-21)
(5.09768 0.303964 4.39953e-22)
(5.20429 -0.0258557 -6.46532e-21)
(5.14344 -0.316038 -4.09428e-21)
(4.9832 -0.524861 -1.03539e-20)
(4.76938 -0.656633 1.46451e-20)
(4.52073 -0.722909 -8.4609e-21)
(4.24839 -0.733669 8.70472e-21)
(3.96328 -0.696837 -1.3074e-20)
(3.6752 -0.617 -4.37739e-21)
(3.39051 -0.493158 -4.39055e-21)
(3.11026 -0.316998 1.56381e-22)
(2.82366 -0.075935 6.37954e-21)
(2.50273 0.217256 3.02194e-21)
(2.21367 0.392289 -9.92833e-22)
(3.43104 0.206709 5.26798e-22)
(3.51843 0.220298 -1.66999e-21)
(3.64934 0.249074 -3.45509e-22)
(3.80935 0.283915 8.02064e-21)
(4.00675 0.305148 -2.42346e-21)
(4.23474 0.274301 -8.86562e-21)
(4.4293 0.141642 1.12785e-20)
(4.51219 -0.0485622 0)
(4.46598 -0.223518 -7.33284e-21)
(4.31972 -0.349171 -9.58951e-22)
(4.10735 -0.423189 9.86307e-21)
(3.85414 -0.452624 0)
(3.58051 -0.44483 4.32853e-21)
(3.30474 -0.405272 4.44563e-21)
(3.04262 -0.33533 -1.11007e-20)
(2.80682 -0.228959 8.8893e-21)
(2.60676 -0.0693917 -4.42984e-21)
(2.44327 0.167944 -2.20378e-21)
(2.29728 0.493116 5.72118e-23)
(2.13555 0.687914 1.10904e-21)
(2.46172 0.111145 0)
(2.55369 0.110191 1.35227e-21)
(2.67367 0.113325 -1.16506e-21)
(2.80386 0.119894 0)
(2.949 0.120568 -4.81088e-21)
(3.09991 0.0983828 -2.29839e-21)
(3.21646 0.0359704 2.2973e-21)
(3.25189 -0.0480632 0)
(3.19282 -0.122326 0)
(3.05566 -0.170845 4.30182e-21)
(2.86692 -0.193595 -3.83095e-21)
(2.65121 -0.19587 -1.0494e-21)
(2.42893 -0.182472 -1.08732e-21)
(2.21733 -0.156061 -5.5776e-21)
(2.03165 -0.115556 4.42308e-21)
(1.88698 -0.0531808 -4.23383e-23)
(1.80016 0.0498068 3.50428e-21)
(1.80133 0.227363 -2.36341e-21)
(1.90932 0.532406 -1.82531e-21)
(1.93631 0.830071 -9.52904e-23)
(0.970493 0.031147 1.07996e-22)
(1.03702 0.0272825 -2.85308e-22)
(1.10583 0.0242566 0)
(1.17063 0.0232895 1.27942e-21)
(1.23741 0.021618 -1.47141e-21)
(1.30085 0.0147265 1.70718e-21)
(1.3418 -0.000761852 0)
(1.33935 -0.0191383 7.67791e-22)
(1.29015 -0.0332943 -7.67304e-22)
(1.20655 -0.0402644 0)
(1.10451 -0.0411257 0)
(0.997373 -0.0380006 -1.0732e-21)
(0.894723 -0.0323671 3.13824e-21)
(0.803797 -0.0246736 3.27619e-21)
(0.731303 -0.0138492 -2.19775e-21)
(0.686549 0.0039306 0)
(0.688608 0.0377715 2.29373e-21)
(0.79004 0.107655 -1.1573e-21)
(1.07264 0.248664 -3.53683e-22)
(1.2427 0.430185 1.04873e-21)
(2.58787 -0.372926 0.161996)
(1.91808 -0.770231 0.110806)
(1.13459 -0.126783 0.167386)
(2.59353 -0.81012 -0.138354)
(2.58793 -0.372251 -0.161925)
(1.91798 -0.770139 -0.110748)
(1.13347 -0.1241 -0.166311)
(2.38641 0.470687 0.207177)
(1.02178 0.0842782 0.170657)
(1.52823 0.535495 0.227113)
(2.50185 0.106505 -0.182016)
(2.38599 0.471033 -0.207175)
(1.01972 0.0852101 -0.170961)
(1.52767 0.535581 -0.227127)
(1.03535 -0.710417 0.0769783)
(0.642208 -0.470199 0.0485322)
(1.25831 -0.862894 -0.0742475)
(1.03459 -0.711018 -0.0770972)
(0.641808 -0.470127 -0.0485426)
(0.383096 -0.066397 0.0481751)
(0.987062 -0.562848 -0.101234)
(0.384397 -0.0655382 -0.0480937)
(0.597208 0.385457 0.256047)
(0.0395198 0.0529171 0.150434)
(0.597039 0.385317 -0.256106)
(0.0396703 0.0530002 -0.149612)
(0.821903 0.581849 0.233594)
(0.233994 0.259008 0.215721)
(0.446075 0.387625 0.227945)
(0.618218 0.488862 -0.231569)
(0.821915 0.581878 -0.233595)
(0.234225 0.259139 -0.215508)
(0.446167 0.387698 -0.227867)
(0.489225 -0.364317 0.0433498)
(0.26166 -0.232495 0.0231949)
(0.80358 -0.623761 -0.0393888)
(0.489078 -0.364007 -0.0433406)
(0.261373 -0.232468 -0.0231713)
(0.291485 -0.230082 -0.0490756)
(0.00516866 0.0121205 0.0566679)
(0.00517919 0.0121645 -0.0562911)
(0.178767 0.180867 0.226569)
(0.00371743 -0.00347933 0.159581)
(0.0773768 0.0719121 0.22772)
(0.0306675 0.0593291 -0.205381)
(0.178735 0.180868 -0.226546)
(0.0037119 -0.003501 -0.159703)
(0.077362 0.0719059 -0.227672)
(0.251557 -0.215596 0.0294902)
(0.215258 -0.249748 -0.00196769)
(0.587742 -0.558687 -0.0142447)
(0.251494 -0.215568 -0.0294851)
(0.21524 -0.249695 0.00196419)
(0.0922156 -0.0769747 -0.0126915)
(0.0204759 -0.0226988 0.219198)
(0.000389542 -0.0122066 0.141754)
(0.0163538 -0.059413 0.216073)
(-0.000373721 -0.0102739 -0.148674)
(0.0204888 -0.0226962 -0.219052)
(0.000408612 -0.0122542 -0.141704)
(0.0163925 -0.0594358 -0.215865)
(0.263421 -0.353734 0.00172979)
(0.279769 -0.458614 -0.0181556)
(0.0257099 -0.0566488 -0.00719898)
(0.453729 -0.619643 0.0099689)
(0.263419 -0.353571 -0.00173928)
(0.279725 -0.458566 0.0181518)
(0.0256835 -0.0567937 0.0072036)
(0.113499 -0.155181 -0.00183996)
(0.0365341 -0.121282 0.217198)
(0.0152347 -0.0351403 0.164291)
(0.0759577 -0.169133 0.221493)
(0.00182585 -0.0147405 -0.141308)
(0.0365775 -0.121302 -0.217066)
(0.0152353 -0.035058 -0.16476)
(0.0759871 -0.169115 -0.221547)
(0.0810302 -0.168985 -0.0297628)
(0.193532 -0.344755 0.0232249)
(0.0811825 -0.168798 0.0297373)
(0.0982013 -0.114417 0.240757)
(0.0981999 -0.11438 -0.240706)
(0.178875 -0.276626 0.225339)
(0.192412 -0.267798 0.218071)
(0.305912 -0.378058 0.232384)
(0.0330469 -0.0612 -0.177066)
(0.178881 -0.276613 -0.225295)
(0.192447 -0.267801 -0.218025)
(0.305928 -0.378074 -0.232364)
(0.118601 -0.163654 -0.0327574)
(0.232992 0.052022 -0.0334984)
(0.0682607 -0.0460467 -0.0366628)
(0.267003 -0.120378 0.0316797)
(0.118534 -0.163668 0.0327538)
(0.232895 0.0519756 0.0334945)
(0.0681499 -0.0460663 0.0366594)
(0.00687555 -0.0212822 -0.0340772)
(0.0507004 -0.118514 0.0323414)
(0.00681725 -0.0212106 0.0340717)
(0.0679376 -0.0243168 0.0972288)
(0.292608 -0.172883 0.23219)
(0.0678559 -0.0242274 -0.0970629)
(0.292552 -0.172995 -0.232179)
(0.285093 -0.242691 0.230623)
(0.401643 -0.269587 0.218718)
(0.539776 -0.400781 0.235371)
(0.285063 -0.242661 -0.230619)
(0.401537 -0.269593 -0.218721)
(0.539727 -0.400774 -0.235372)
(0.0284522 0.0308808 -0.0421378)
(0.35102 0.669197 -0.031236)
(0.0148564 0.129052 -0.0456472)
(0.262685 0.355005 0.0370266)
(0.0283464 0.0308635 0.0421663)
(0.350949 0.669099 0.0312341)
(0.0148674 0.128934 0.0456555)
(0.00458708 0.000644255 0.0278041)
(0.282635 -0.146525 0.2301)
(0.282681 -0.146633 -0.230011)
(0.117574 -0.0824034 0.197575)
(0.390286 -0.208019 0.226399)
(0.550438 -0.287331 0.224831)
(0.117542 -0.0823679 -0.197592)
(0.390182 -0.208072 -0.226411)
(0.550374 -0.287309 -0.224826)
(0.574419 -0.313087 0.231272)
(0.741751 -0.396235 0.229967)
(0.919786 -0.495885 0.237925)
(0.312947 -0.162237 -0.218484)
(0.574395 -0.313097 -0.231273)
(0.741703 -0.396176 -0.229968)
(0.919766 -0.495874 -0.237925)
(0.0470646 0.22571 -0.0469388)
(1.50875 1.76152 0.019549)
(0.925652 1.0812 0.0624265)
(0.738152 1.21956 0.0217862)
(0.0470559 0.225525 0.0469617)
(1.50875 1.76152 -0.0195481)
(0.926137 1.08143 -0.0626015)
(0.521245 -0.187521 0.297568)
(0.521473 -0.187632 -0.297495)
(0.0599741 -0.0282199 0.0800053)
(0.709296 -0.312715 0.286635)
(0.82326 -0.333343 0.263705)
(0.0599458 -0.0282057 -0.0800129)
(0.709388 -0.31295 -0.286497)
(0.823099 -0.33334 -0.26371)
(0.622781 -0.298354 0.238807)
(1.01992 -0.454536 0.256679)
(1.23729 -0.531198 0.251607)
(0.14415 -0.0878062 -0.191537)
(0.622743 -0.298283 -0.238796)
(1.01983 -0.454503 -0.256673)
(1.23726 -0.53117 -0.251605)
(1.86996 -0.217234 0.259764)
(3.75719 0.837471 0.196395)
(3.46165 0.124562 0.240024)
(2.29391 0.810937 -0.125472)
(1.87028 -0.217239 -0.259629)
(3.75716 0.837507 -0.196398)
(3.46172 0.124628 -0.239997)
(0.228251 -0.14091 0.000149534)
(0.987482 -0.56306 -7.86721e-05)
(0.7477 -0.380342 0.111081)
(0.520163 -0.345353 0.0701636)
(0.746277 -0.379372 0.000334992)
(0.521824 -0.346456 -0.00034096)
(0.227708 -0.140826 0.035854)
(0.326198 0.133264 0.0990737)
(0.325757 0.133535 -1.86038e-05)
(1.0352 -0.797078 0.0335826)
(0.908375 -0.774401 0.0194819)
(0.671939 -0.555144 0.0248596)
(1.18522 -0.937387 -0.0297183)
(1.03515 -0.797102 -0.0335843)
(0.908309 -0.774385 -0.0194817)
(0.671826 -0.555142 -0.0248606)
(0.292056 -0.230682 3.68302e-05)
(0.134495 -0.0838625 0.0294463)
(0.100503 -0.0971975 0.0109985)
(0.134663 -0.0838503 4.73208e-05)
(0.100536 -0.0974874 -3.9915e-05)
(0.0621136 0.0783909 5.16422e-05)
(0.0306324 0.0594827 -2.65771e-05)
(0.0966237 0.120441 0.239023)
(0.0213189 0.0310379 0.19471)
(0.0966702 0.120576 1.16805e-06)
(0.0213595 0.0311522 1.95869e-05)
(0.0621167 0.078371 0.232574)
(0.775706 -0.77107 0.0106213)
(0.683983 -0.781302 -0.00275546)
(0.517941 -0.598266 0.00186217)
(0.891494 -0.894224 -0.00639531)
(0.775692 -0.771026 -0.0106213)
(0.684007 -0.781272 0.00275538)
(0.517942 -0.598193 -0.00186226)
(0.0921464 -0.0769004 2.47539e-05)
(0.000635349 -0.0217998 9.47939e-06)
(-0.000380042 -0.0102787 -1.08661e-06)
(0.00238336 -0.0164801 0.208)
(-0.000482096 -0.0107359 0.144634)
(0.00238274 -0.0164834 -5.29282e-06)
(-0.000469903 -0.0107352 2.72972e-06)
(0.000621688 -0.0218281 0.201888)
(0.113451 -0.155195 6.45637e-05)
(0.0470084 -0.0803598 -0.00422957)
(0.0469632 -0.0805019 -2.27198e-05)
(0.0122355 -0.0565576 -5.15445e-06)
(0.00181787 -0.0147158 -8.41028e-07)
(0.00778602 -0.0476191 0.19711)
(0.0032954 -0.0180405 0.143995)
(0.00781625 -0.0476332 2.8341e-06)
(0.00330167 -0.0180294 -4.24424e-06)
(0.012215 -0.0565649 0.20171)
(0.288844 -0.439825 -0.0225756)
(0.328405 -0.320849 -0.0270115)
(0.194443 -0.306975 -0.0274171)
(0.410145 -0.452973 0.022672)
(0.288859 -0.439806 0.0225734)
(0.328402 -0.320883 0.0270116)
(0.194498 -0.306974 0.0274121)
(0.0674958 -0.155674 -3.19494e-05)
(0.193853 -0.34507 1.943e-05)
(0.132751 -0.257454 -0.018187)
(0.142156 -0.279208 -0.0277021)
(0.132832 -0.257641 8.79603e-05)
(0.142194 -0.279276 -4.18114e-05)
(0.0675651 -0.155585 -0.0262498)
(0.106538 -0.178132 2.25517e-05)
(0.0330522 -0.0611692 6.7938e-06)
(0.0790986 -0.134708 0.218687)
(0.0453281 -0.0956952 0.205838)
(0.0791337 -0.134599 3.25836e-05)
(0.0452065 -0.09567 -6.08782e-06)
(0.106522 -0.178088 0.236507)
(0.00450531 -0.0204247 -2.71833e-05)
(0.050672 -0.118606 2.58248e-05)
(0.0163536 -0.0503382 -0.0196405)
(0.0213784 -0.0699512 -0.0390295)
(0.016405 -0.0503284 4.34873e-05)
(0.0212004 -0.0698731 -7.13783e-05)
(0.00456234 -0.0204086 -0.00997593)
(0.172428 -0.140364 -6.22633e-05)
(0.0671557 -0.0616496 0.101177)
(0.11147 -0.0804853 0.163112)
(0.0671707 -0.0617801 1.77253e-06)
(0.11138 -0.0804592 -1.59139e-05)
(0.172434 -0.140232 0.225972)
(0.00455925 0.000726693 -8.60547e-06)
(0.00219951 0.0115094 -0.0120205)
(0.00216192 0.0115216 6.55398e-06)
(0.103397 -0.0552435 1.65366e-05)
(0.0462298 -0.0211348 0.0705035)
(0.0463203 -0.0210801 -2.21548e-05)
(0.103447 -0.0554346 0.169195)
(0.0723732 -0.0273273 -2.8958e-05)
(0.072347 -0.0274781 0.0852722)
(0.473814 -0.253568 -0.000112163)
(0.144227 -0.0881106 2.24785e-05)
(0.215448 -0.115684 0.250511)
(0.378255 -0.213747 0.25024)
(0.215298 -0.115802 2.23165e-05)
(0.378068 -0.214008 -5.60182e-05)
(0.473841 -0.253305 0.270486)
(1.08958 -0.533122 0.243154)
(1.45829 -0.653484 0.24116)
(1.61936 -0.734509 0.246)
(0.877699 -0.426157 -0.23124)
(1.08956 -0.533131 -0.243144)
(1.45826 -0.653483 -0.241169)
(1.61934 -0.734519 -0.246003)
(2.69254 1.84896 0.127763)
(3.58244 1.92831 0.106697)
(3.71888 1.64713 0.146296)
(2.79115 2.04283 -0.0708409)
(2.69259 1.8484 -0.127781)
(3.58247 1.92823 -0.106695)
(3.71886 1.6469 -0.146306)
(2.62369 0.370971 -8.65267e-05)
(2.30069 0.810871 -0.000497182)
(1.77876 0.240912 0.278409)
(2.8572 0.937219 0.197931)
(1.78454 0.23777 0.000867137)
(2.85933 0.937764 -9.21397e-05)
(2.62146 0.37438 0.249433)
(2.01447 -0.583991 0.274579)
(3.2327 -0.354373 0.250494)
(3.09179 -0.585462 0.260497)
(1.97597 -0.487567 -0.264839)
(2.0145 -0.584058 -0.274538)
(3.23277 -0.354408 -0.250487)
(3.09181 -0.585511 -0.260496)
(1.9475 -0.458644 -0.000214952)
(1.13521 -0.124881 0.000381551)
(1.81535 -0.159423 0.174071)
(1.46829 -0.419756 0.112523)
(1.81559 -0.157925 0.000110856)
(1.46945 -0.419854 -0.000474328)
(1.94669 -0.457969 0.149023)
(1.94752 -0.458196 0.00020691)
(1.13439 -0.123712 -6.78481e-05)
(1.81484 -0.15744 -0.173956)
(1.46793 -0.419084 -0.112524)
(1.81528 -0.157043 5.4312e-05)
(1.46924 -0.419508 0.000369123)
(1.94676 -0.457143 -0.149008)
(1.6681 0.263963 -3.90068e-05)
(1.02001 0.0854938 9.83806e-05)
(1.70594 0.101861 0.181908)
(1.01494 0.253673 0.206962)
(1.70513 0.102876 -6.47186e-05)
(1.01368 0.254247 -8.27684e-05)
(1.66849 0.263709 0.211691)
(1.66765 0.264253 0.000129576)
(1.01906 0.0859703 -3.7403e-05)
(1.70483 0.102857 -0.181977)
(1.01371 0.253994 -0.207084)
(1.70462 0.103351 0.000148826)
(1.01312 0.254406 0.000151745)
(1.6675 0.264312 -0.211786)
(0.38428 -0.345409 0.00010663)
(0.263962 -0.211237 0.0419813)
(0.14331 -0.138579 0.016688)
(0.262814 -0.21136 -0.000152767)
(0.143069 -0.138878 -1.93904e-05)
(0.385399 -0.345082 0.0646747)
(0.383667 -0.345356 -0.000211998)
(0.262395 -0.211449 -0.0419571)
(0.14294 -0.138431 -0.0166872)
(0.261955 -0.21146 1.73718e-05)
(0.142882 -0.138795 7.33535e-06)
(0.384196 -0.345045 -0.0646282)
(0.384302 -0.0657229 0.000120912)
(0.669668 -0.227548 0.0675866)
(0.668837 -0.226298 -0.000424571)
(0.112675 -0.0743785 0.0196304)
(0.112196 -0.0741246 -0.000120693)
(0.228636 -0.140525 5.04889e-05)
(0.987532 -0.56343 -0.000151018)
(0.746741 -0.378115 -0.111389)
(0.522517 -0.347461 -0.0696919)
(0.74551 -0.378193 -0.000300142)
(0.522941 -0.347537 8.38622e-05)
(0.22848 -0.140086 -0.0358989)
(0.384816 -0.0654505 2.37677e-05)
(0.66783 -0.226034 -0.0678621)
(0.667589 -0.225782 0.000155392)
(0.111293 -0.0742546 -0.0192249)
(0.111445 -0.074071 -8.01707e-05)
(0.118905 0.105459 1.05091e-05)
(0.597289 0.385968 -0.000147714)
(0.47721 0.286284 0.227807)
(0.221254 0.210059 0.254551)
(0.476858 0.286732 -9.47974e-05)
(0.221225 0.210354 7.05579e-05)
(0.118883 0.105127 0.112492)
(0.0395583 0.0531284 5.12755e-06)
(0.0883465 0.0989901 0.19762)
(0.0883996 0.0989833 -5.68185e-05)
(0.325814 0.133217 -0.0991277)
(0.32559 0.133518 1.51224e-05)
(0.118893 0.105442 -1.03401e-05)
(0.597162 0.385907 0.000163287)
(0.477033 0.286193 -0.227892)
(0.221202 0.209864 -0.254609)
(0.47675 0.286684 0.000106865)
(0.2212 0.210303 -6.97918e-05)
(0.118847 0.105064 -0.11251)
(0.0395975 0.0531498 -5.16699e-05)
(0.0883972 0.098813 -0.197708)
(0.0884193 0.0989547 4.22734e-05)
(0.386482 -0.336594 5.53365e-05)
(0.26121 -0.232542 -4.22103e-05)
(0.483779 -0.416968 0.034846)
(0.165496 -0.149898 0.0135445)
(0.483729 -0.417295 8.01898e-05)
(0.165334 -0.150277 -8.22427e-05)
(0.386676 -0.33606 0.0321065)
(0.243028 -0.185412 1.24581e-05)
(0.106106 -0.0681386 0.0223084)
(0.0661031 -0.0511841 0.00895372)
(0.106256 -0.0680397 8.20594e-05)
(0.0661762 -0.0512664 -1.7367e-05)
(0.242753 -0.185153 0.0353222)
(0.386468 -0.336709 -7.96294e-05)
(0.261062 -0.232523 1.9303e-05)
(0.483629 -0.417073 -0.0348259)
(0.165192 -0.149958 -0.0135095)
(0.483647 -0.417341 -9.40296e-05)
(0.165175 -0.150304 4.59956e-05)
(0.386674 -0.336311 -0.0320676)
(0.243232 -0.185634 -2.51474e-05)
(0.106226 -0.0680371 -0.0223384)
(0.065972 -0.0512855 -0.0088988)
(0.1063 -0.0679735 -1.16844e-05)
(0.0661036 -0.0513155 -2.38897e-05)
(0.243217 -0.185633 -0.0352716)
(0.291918 -0.230574 -4.71201e-05)
(0.134428 -0.0838245 -0.0294479)
(0.100455 -0.0971528 -0.0109981)
(0.134591 -0.08381 -5.3085e-05)
(0.100484 -0.0974339 3.63466e-05)
(0.00510493 0.0121216 4.45011e-06)
(0.0051061 0.0121284 -1.2127e-06)
(0.0291904 0.0315501 -6.58472e-06)
(0.00370909 -0.00351045 6.60828e-06)
(0.0088106 0.00894533 0.174129)
(0.0169885 0.00722171 0.22065)
(0.00878347 0.00891548 4.70853e-06)
(0.016967 0.00718427 1.10049e-05)
(0.0292211 0.0316657 0.228841)
(0.0621033 0.0783863 -3.83904e-05)
(0.0306175 0.059456 5.1215e-05)
(0.0965371 0.120392 -0.239008)
(0.021271 0.0309597 -0.19479)
(0.096682 0.120591 1.02008e-05)
(0.0213499 0.0311365 -5.78157e-06)
(0.0620436 0.0783154 -0.232616)
(0.0291852 0.0315392 1.49975e-05)
(0.00370901 -0.00351717 -3.72723e-06)
(0.00879138 0.00889592 -0.174188)
(0.0169789 0.00719711 -0.220696)
(0.00877958 0.00890419 2.07925e-06)
(0.0169686 0.00717594 -6.22886e-06)
(0.0291837 0.0316112 -0.228876)
(0.239308 -0.218644 -6.35625e-05)
(0.251729 -0.215808 9.71232e-05)
(0.404694 -0.356966 0.02378)
(0.0904619 -0.0796861 0.008692)
(0.405058 -0.357276 3.11921e-05)
(0.0906435 -0.0798699 7.11398e-07)
(0.239161 -0.218557 0.0118641)
(0.225228 -0.239398 7.39666e-05)
(0.215347 -0.249549 -0.000109765)
(0.359049 -0.391969 0.00724398)
(0.0793341 -0.0907901 0.00199413)
(0.359307 -0.392269 5.40871e-06)
(0.0795023 -0.0909337 -2.64068e-06)
(0.22518 -0.239249 0.0125758)
(0.111373 -0.109162 3.03557e-06)
(0.111452 -0.109244 0.00466045)
(0.239292 -0.218629 6.19528e-05)
(0.25169 -0.215787 -0.000101615)
(0.40463 -0.356932 -0.0237741)
(0.0904552 -0.079684 -0.00869139)
(0.405016 -0.35725 -3.49906e-05)
(0.0906391 -0.0798671 -1.51802e-06)
(0.239133 -0.218535 -0.0118623)
(0.225219 -0.239385 -7.25723e-05)
(0.215334 -0.249523 0.000113102)
(0.359029 -0.391914 -0.00724645)
(0.0793306 -0.0907819 -0.00199493)
(0.359291 -0.392237 -3.14211e-06)
(0.0795001 -0.0909297 3.32796e-06)
(0.225166 -0.239226 -0.0125777)
(0.111366 -0.109155 -3.32179e-06)
(0.111438 -0.109229 -0.00466024)
(0.0921152 -0.0768893 -2.76299e-05)
(0.000740178 -0.0303464 5.87707e-06)
(0.000402492 -0.0122298 -3.70741e-06)
(-0.000217733 -0.011734 0.142996)
(0.00277531 -0.034916 0.196957)
(-0.000203107 -0.0117646 1.32334e-06)
(0.00280448 -0.034947 -3.66894e-06)
(0.000719836 -0.0303065 0.198846)
(0.000642663 -0.0218154 -3.30991e-06)
(-0.000380644 -0.0102883 6.16056e-06)
(0.00238163 -0.0164778 -0.207981)
(-0.000483123 -0.0107692 -0.144566)
(0.00238887 -0.0164875 1.28056e-05)
(-0.00047191 -0.0107571 1.34077e-06)
(0.000628606 -0.0218489 -0.20178)
(0.000750335 -0.0303744 -1.92593e-06)
(0.000404886 -0.0122465 5.46611e-07)
(-0.000212002 -0.0117912 -0.142942)
(0.00282286 -0.0349741 -0.196826)
(-0.00020459 -0.0117926 1.27668e-06)
(0.00282156 -0.0349678 2.15193e-06)
(0.000741352 -0.0303645 -0.198724)
(0.26265 -0.394457 -4.24707e-05)
(0.263662 -0.353969 0.00012573)
(0.355457 -0.476209 -0.0045434)
(0.139712 -0.224103 -0.00951222)
(0.355922 -0.476466 3.77929e-05)
(0.139653 -0.224062 -2.33596e-05)
(0.262483 -0.394389 -0.0117801)
(0.180129 -0.291546 4.77057e-05)
(0.0257079 -0.0568508 -2.79894e-05)
(0.0830511 -0.140388 -0.00622186)
(0.0907729 -0.179735 -0.0241728)
(0.0831583 -0.140355 9.32671e-05)
(0.0905929 -0.179651 -0.000107591)
(0.179793 -0.291459 -0.0139699)
(0.262698 -0.39444 5.32875e-05)
(0.263658 -0.353907 -0.000116441)
(0.355522 -0.476108 0.00453676)
(0.13971 -0.223927 0.00948853)
(0.355944 -0.476423 -3.10332e-05)
(0.139656 -0.224009 4.59656e-05)
(0.26261 -0.39434 0.0117654)
(0.180186 -0.291585 -3.04539e-05)
(0.0257326 -0.0569487 9.74336e-06)
(0.0830961 -0.140417 0.00616145)
(0.0905768 -0.179668 0.0241977)
(0.0831859 -0.140384 -5.55148e-05)
(0.0905419 -0.179633 7.17249e-05)
(0.179936 -0.291542 0.0139446)
(0.113443 -0.155169 -6.18828e-05)
(0.0469892 -0.0802959 0.00422642)
(0.0469557 -0.0804787 2.65122e-05)
(0.0241006 -0.0735179 6.89916e-06)
(0.0152145 -0.035087 -7.38402e-06)
(0.00705683 -0.0239301 0.153716)
(0.041429 -0.0912326 0.217122)
(0.00705797 -0.0239287 3.86267e-06)
(0.0414402 -0.0911115 -2.06042e-05)
(0.0240991 -0.0735099 0.211773)
(0.0122562 -0.0565814 1.13572e-06)
(0.00182253 -0.014731 -1.86254e-07)
(0.00784074 -0.0476665 -0.197014)
(0.00331882 -0.0180545 -0.144015)
(0.00783115 -0.0476536 -1.27425e-06)
(0.00330753 -0.0180445 -1.62771e-06)
(0.0122714 -0.0565967 -0.201703)
(0.0241094 -0.0735128 -8.476e-06)
(0.015214 -0.0350653 1.94406e-07)
(0.00706358 -0.0239243 -0.153852)
(0.0414673 -0.0911611 -0.217498)
(0.00705913 -0.0239273 -4.06496e-06)
(0.0414511 -0.0910896 1.49761e-05)
(0.0241268 -0.0735002 -0.211858)
(0.0181742 -0.048456 -1.73733e-05)
(0.0521359 -0.115265 -0.0149296)
(0.05194 -0.115157 3.43363e-05)
(0.0182379 -0.0483631 -0.00899052)
(0.0475636 -0.102045 2.60768e-05)
(0.0812056 -0.168874 3.10602e-07)
(0.107774 -0.210483 -0.0284089)
(0.0305512 -0.0718171 -0.0211503)
(0.10792 -0.210329 5.13936e-06)
(0.0306594 -0.0717145 2.47558e-05)
(0.0475032 -0.102207 -0.0225437)
(0.0674694 -0.155608 2.90008e-05)
(0.193844 -0.345023 -2.04663e-05)
(0.132691 -0.257357 0.0181879)
(0.14215 -0.279073 0.0277023)
(0.132814 -0.257597 -8.92514e-05)
(0.142194 -0.279214 4.27085e-05)
(0.0674995 -0.155431 0.0262513)
(0.0181615 -0.0484398 1.32587e-05)
(0.0520534 -0.115175 0.0149307)
(0.0519151 -0.115123 -3.70258e-05)
(0.0182061 -0.048319 0.00899085)
(0.0475671 -0.101964 -2.03994e-05)
(0.0812788 -0.168782 1.78871e-05)
(0.107838 -0.210308 0.0284025)
(0.0306101 -0.0715807 0.0211094)
(0.107952 -0.210249 2.91348e-06)