/*--------------------------------*- C++ -*----------------------------------*\
  =========                 |
  \\      /  F ield         | OpenFOAM: The Open Source CFD Toolbox
   \\    /   O peration     | Website:  https://openfoam.org
    \\  /    A nd           | Version:  7
     \\/     M anipulation  |
\*---------------------------------------------------------------------------*/
FoamFile
{
    version     2.0;
    format      ascii;
    class       volScalarField;
    location    "1";
    object      p;
}
// * * * * * * * * * * * * * * * * * * * * * * * * * * * * * * * * * * * * * //

dimensions      [0 2 -2 0 0 0 0];

internalField   nonuniform List<scalar> 
1161
(
0.0704609
-0.280109
-0.824105
-1.46756
-2.26474
-3.29744
-4.65904
-6.44033
-8.69842
-11.4343
-14.6194
-17.9586
-20.9283
-23.2956
-25.1173
-26.5877
-27.9273
-29.3923
-31.7633
-38.3613
-0.001498
-0.434693
-1.04112
-1.73736
-2.59569
-3.70049
-5.13933
-6.99519
-9.31183
-12.0665
-15.24
-18.4372
-21.1047
-23.15
-24.7614
-26.1515
-27.4676
-28.8066
-30.2304
-32.0263
-0.0277647
-0.467261
-1.0665
-1.74963
-2.60331
-3.72716
-5.22615
-7.20447
-9.73255
-12.834
-16.4994
-19.9285
-22.2966
-23.7116
-24.7536
-25.7191
-26.6595
-27.5456
-28.1971
-28.3374
-0.0427805
-0.428491
-0.954122
-1.5705
-2.37537
-3.48822
-5.03858
-7.15641
-9.98884
-13.7807
-18.7271
-22.7925
-24.5396
-24.8716
-25.0514
-25.3982
-25.8769
-26.3838
-26.7679
-26.6248
-0.0530344
-0.337633
-0.729135
-1.22888
-1.94342
-3.00875
-4.55953
-6.67364
-9.40444
-13.1972
-18.6652
-25.2527
-27.5007
-26.3241
-25.6099
-25.3292
-25.4004
-25.713
-26.1094
-26.3324
-0.0557068
-0.201596
-0.408372
-0.741085
-1.31296
-2.27195
-3.74447
-5.69634
-7.39735
-10.364
-14.349
-30.2264
-27.4938
-26.0556
-25.359
-25.1585
-25.3521
-25.8546
-26.6588
-0.0516679
-0.0323374
-0.0172631
-0.132025
-0.485427
-1.22427
-2.523
-4.30017
-6.02083
-7.49754
-29.7073
-27.3383
-26.1342
-25.3835
-25.0473
-25.1337
-25.6728
-26.9369
-0.0448482
0.154496
0.413147
0.56036
0.517033
0.199154
-1.17288
-2.64749
-4.60093
-28.4317
-27.0798
-26.1809
-25.4707
-25.0549
-25.0149
-25.4692
-26.8789
-0.0352956
0.341589
0.846737
1.27871
1.57091
1.60788
0.991353
-0.911783
-28.061
-27.2182
-26.3675
-25.6461
-25.142
-24.9366
-25.1802
-26.3581
-0.0217004
0.505646
1.23243
1.94684
2.71145
2.94022
2.83708
-28.6015
-27.6092
-26.6269
-25.8148
-25.1736
-24.7417
-24.651
-25.2698
-0.00698405
0.605133
1.48043
2.39323
3.48217
4.4342
4.81695
-28.8296
-27.7471
-26.7294
-25.7924
-24.9516
-24.2159
-23.6772
-23.5252
-0.0158675
0.534532
1.38251
2.31636
3.52306
5.31417
6.9335
-31.539
-30.0702
-28.8311
-27.664
-26.5393
-25.436
-24.3398
-23.2333
-22.1722
-21.1601
-0.0886095
0.142933
0.545816
0.829033
0.885037
2.84684
-37.8259
-34.0088
-31.3891
-29.8486
-28.5248
-27.2681
-26.0179
-24.735
-23.3749
-21.8924
-20.3195
-18.4746
-0.235337
-0.555572
-1.00908
-2.19118
-5.2553
-10.4308
-30.9203
-40.1021
-34.7659
-32.1571
-30.4492
-29.0507
-27.7742
-26.5157
-25.2259
-23.851
-22.324
-20.5733
-18.6131
-16.1075
-0.416611
-1.33583
-2.6542
-4.94704
-9.2187
-16.4157
-25.8917
-30.7231
-30.6955
-29.5284
-28.4884
-27.5477
-26.5722
-25.5258
-24.3906
-23.1174
-21.6316
-19.841
-17.7354
-14.8841
-0.568301
-1.95437
-3.82343
-6.38035
-9.95621
-14.7882
-20.8335
-25.0152
-26.4143
-26.4731
-26.2126
-25.834
-25.3115
-24.6491
-23.8527
-22.8888
-21.6878
-20.147
-18.2226
-15.4665
-0.660032
-2.32681
-4.45842
-6.98015
-10.0002
-13.586
-17.67
-20.9981
-22.9062
-23.7999
-24.2264
-24.3974
-24.3582
-24.1427
-23.778
-23.2575
-22.5317
-21.5054
-20.1446
-18.004
-0.696971
-2.50281
-4.7286
-7.17002
-9.85211
-12.7618
-15.8271
-18.5813
-20.6308
-22.0134
-22.9341
-23.5339
-23.8848
-24.0449
-24.0664
-23.9823
-23.7987
-23.4919
-22.9295
-22.0066
-0.688893
-2.53638
-4.75657
-7.12377
-9.63016
-12.2492
-14.9208
-17.4411
-19.5733
-21.2333
-22.4567
-23.3195
-23.8974
-24.2642
-24.4936
-24.6591
-24.839
-25.0962
-25.5927
-26.9169
-0.618629
-2.41324
-4.56463
-6.88273
-9.35154
-11.9492
-14.6307
-17.2378
-19.5422
-21.4045
-22.7991
-23.7745
-24.4075
-24.781
-24.9795
-25.0927
-25.2312
-25.5819
-26.941
-33.0142
-22.8968
-16.7019
-28.7795
-18.6657
-22.9054
-16.7002
-28.866
-26.8109
-30.735
-31.0089
-25.2598
-26.8159
-30.7459
-31.0147
-11.5211
-7.68683
-10.3588
-11.5114
-7.68158
-26.5941
-14.3302
-26.7837
-32.0412
-32.7564
-32.0426
-32.7446
-28.8951
-30.4269
-29.6084
-30.2274
-28.8956
-30.4271
-29.6089
-6.72381
-3.88239
-6.02023
-6.72591
-3.8784
-7.49581
-31.2028
-31.1995
-28.8062
-28.9113
-28.6737
-29.7086
-28.8067
-28.9116
-28.6742
-4.56167
-0.409264
-2.64728
-4.56075
-0.409981
-4.59969
-28.033
-28.0117
-27.948
-28.433
-28.0335
-28.011
-27.948
-0.688228
2.09868
2.82991
0.990814
-0.690543
2.09909
2.84118
-0.91282
-27.9933
-28.4156
-28.0405
-28.0609
-27.9931
-28.414
-28.0402
4.27779
2.83687
4.27288
-29.5631
-29.5627
-28.5713
-28.4748
-28.3247
-28.6028
-28.5717
-28.4751
-28.3251
4.79229
4.72883
5.39794
4.43523
4.79391
4.73035
5.40009
6.41144
4.80935
6.41341
-30.153
-30.4884
-30.1491
-30.4897
-30.3142
-29.623
-29.5529
-30.3142
-29.6234
-29.5531
6.44
4.44297
8.2651
5.31591
6.44292
4.44502
8.26669
6.93335
-34.6304
-34.6321
-33.5659
-33.6154
-32.6739
-33.5659
-33.6162
-32.6743
-31.5385
-31.1796
-30.8097
-31.5386
-31.5387
-31.1797
-30.8098
8.6219
-3.03725
-12.5175
2.85037
8.62642
-3.03635
-12.5711
-46.9062
-46.9068
-37.8237
-43.9446
-39.7176
-37.8242
-43.9507
-39.719
-35.4182
-36.4108
-35.214
-37.8254
-35.4183
-36.4112
-35.2144
-40.4072
-29.6172
-34.8857
-30.9439
-40.4041
-29.6157
-34.8855
-13.6548
-14.3647
-17.0189
-11.3942
-17.1152
-11.3341
-13.5966
-33.9082
-33.8999
-5.06825
-3.23485
-4.1072
-4.29984
-5.0677
-3.23443
-4.10615
-7.50887
-10.0019
-4.70714
-10.0307
-4.68422
-29.5388
-29.6963
-29.4776
-29.6196
-29.4759
-29.6245
-29.5285
-1.86268
-0.0512922
-0.757298
-1.17306
-1.86281
-0.051651
-0.757832
-4.61613
-28.2072
-28.4306
-28.3489
-28.2003
-28.3469
-28.2007
-28.2054
-0.937333
1.54337
1.56658
-28.1105
-28.0609
-28.0655
-28.1486
-28.0663
-28.148
-28.1113
3.0227
3.69148
3.90309
2.9402
3.02259
3.69169
3.90288
3.75451
2.832
2.34123
3.67705
2.31584
3.68783
3.74431
-28.6242
-28.6043
-28.6697
-28.6352
-28.6761
-28.633
-28.6213
5.95688
4.81077
4.72037
5.83286
4.70317
5.85013
5.93827
-29.7163
-30.5258
-29.6104
-30.5273
-29.6043
-29.7279
6.93378
7.40894
7.40358
-33.4029
-33.3376
-33.322
-33.4004
-41.3217
-41.344
-36.1846
-37.8296
-37.0013
-37.0175
-37.0085
-37.0034
-36.2107
-33.706
-33.5592
-32.609
-34.0092
-33.7064
-33.5595
-32.6091
-21.4489
-14.393
-21.3328
-10.4314
-21.4519
-14.3935
-21.333
-37.4478
-30.7526
-50.4137
-32.5049
-50.7307
-32.4842
-37.4728
-39.505
-36.2094
-35.9036
-40.1037
-39.506
-36.2101
-35.904
-21.5722
-28.8849
-26.2411
-19.2005
-26.2588
-19.0957
-21.6167
-21.5796
-28.9214
-26.2763
-19.2084
-26.274
-19.1055
-21.633
-28.0672
-30.7602
-27.2009
-30.3966
-27.1772
-30.3681
-28.0868
-28.0725
-30.7668
-27.2168
-30.4082
-27.1826
-30.3728
-28.1005
-9.43538
-9.07724
-6.23636
-9.03205
-6.22733
-9.4009
-9.42915
-9.0416
-6.23162
-9.02122
-6.22728
-9.38393
-26.7382
-16.8147
-16.7258
-11.1143
-11.0686
-13.7078
-14.3475
-17.0415
-11.3606
-17.1234
-11.3122
-13.6974
-26.8195
-16.804
-16.7165
-10.9949
-11.0038
-35.3405
-32.006
-33.1661
-33.8168
-33.1411
-33.83
-35.3374
-32.7633
-32.5677
-32.5522
-33.9052
-33.8975
-35.3405
-32.0076
-33.1675
-33.8159
-33.1418
-33.8309
-35.3366
-32.7627
-32.5643
-32.5531
-5.41574
-3.87394
-5.08015
-3.53481
-5.10101
-3.50764
-5.39728
-6.02575
-7.94551
-5.24232
-7.97851
-5.24051
-6.02182
-5.41371
-3.87208
-5.07793
-3.52577
-5.09992
-3.50309
-5.39328
-6.02373
-7.97162
-5.21735
-7.99132
-5.22733
-6.01827
-7.50741
-9.9997
-4.70552
-10.0285
-4.68327
-31.2002
-31.2004
-29.0905
-28.9132
-29.292
-28.8492
-29.2923
-28.852
-29.0926
-29.5389
-29.6968
-29.4783
-29.6212
-29.4759
-29.6249
-29.5297
-29.0906
-28.9133
-29.293
-28.8497
-29.2926
-28.8522
-29.0934
-2.56194
-4.587
-3.65812
-3.59128
-3.66581
-3.59149
-2.58095
-2.4877
-0.381325
-1.49757
-1.25405
-1.49867
-1.25229
-2.46624
-2.616
-2.6133
-2.56176
-4.58656
-3.65744
-3.59074
-3.66543
-3.59129
-2.58053
-2.48768
-0.381454
-1.49803
-1.25438
-1.49876
-1.25227
-2.46655
-2.61584
-2.61317
-4.61563
-28.089
-28.0108
-28.0659
-28.0179
-28.066
-28.0177
-28.0876
-28.2074
-28.431
-28.35
-28.2012
-28.3472
-28.201
-28.2061
-28.0887
-28.0107
-28.0663
-28.018
-28.0662
-28.0175
-28.0879
1.2741
-0.723861
0.186594
1.10601
0.177407
1.11615
1.26149
1.53334
2.85068
0.746355
2.95083
0.712273
2.97889
1.54507
1.27325
-0.724348
0.185009
1.09978
0.17702
1.11444
1.25854
1.53194
2.85347
0.733939
2.95757
0.708788
2.98122
1.54132
-0.937351
1.54019
1.56586
-28.2417
-28.414
-28.3003
-28.2851
-28.3011
-28.2808
-28.2402
-28.1104
-28.0613
-28.066
-28.1478
-28.0668
-28.1478
-28.1108
-28.2416
-28.414
-28.3
-28.2842
-28.3011
-28.2809
-28.2399
3.89708
2.4981
2.48418
3.88211
3.69591
4.27837
3.90877
4.11732
3.90779
4.10922
3.70515
3.75472
2.83206
2.34116
3.67634
2.31576
3.68769
3.74442
3.89818
2.49873
2.48393
3.88417
3.69527
4.27634
3.90647
4.10808
3.90694
4.10531
3.70317
-29.3246
-29.331
-29.5639
-29.6538
-29.5064
-29.6657
-29.499
-29.3266
-29.3317
-29.5639
-29.653
-29.5061
-29.6653
-29.4991
-28.6243
-28.6045
-28.6709
-28.6362
-28.6764
-28.633
-28.6221
6.41524
5.98697
5.99133
5.96877
4.80695
4.69612
5.84582
4.69059
5.85648
5.96199
6.41619
5.99436
5.99483
-29.9834
-29.9795
-30.9587
-30.1376
-30.888
-30.8835
-30.9632
-31.1079
-30.4752
-30.7626
-30.7133
-30.7731
-30.6969
-31.1018
-29.9849
-29.9801
-30.9569
-30.1361
-30.8858
-30.8826
-30.9594
-31.1115
-30.4759
-30.766
-30.7146
-30.7746
-30.6976
-31.109
-29.7163
-30.526
-29.6107
-30.5273
-29.6043
-29.7282
6.4021
6.43509
6.15924
6.96721
6.15821
6.95456
6.41072
6.51127
8.25618
7.75737
6.17422
7.75576
6.13683
6.52141
6.40302
6.4368
6.16246
6.96792
6.16032
6.95466
6.4125
6.51197
8.25615
7.75757
6.1772
7.75552
6.13764
6.52327
6.93373
7.41107
7.40429
-35.8355
-35.8251
-34.4842
-34.6335
-34.8245
-34.6063
-34.8415
-34.5853
-34.4965
-35.8333
-35.8241
-34.4815
-34.6345
-34.8327
-34.6027
-34.8458
-34.5839
-34.4905
-32.1866
-33.5986
-32.4721
-32.3491
-32.4618
-32.3448
-32.2096
-34.1403
-33.5924
-33.8879
-33.3193
-33.8804
-33.3035
-34.1139
-33.4031
-33.3384
-33.3224
-33.401
-32.1867
-33.5984
-32.4724
-32.3492
-32.462
-32.3448
-32.2099
-34.1408
-33.5929
-33.8905
-33.32
-33.8817
-33.3038
-34.115
3.05604
8.62356
6.0678
6.31988
6.05384
6.32812
3.1096
-0.677445
-12.7038
0.658485
-8.46397
0.701197
-8.52103
-0.682587
3.06
8.62345
6.07393
6.34069
6.05559
6.33038
3.12341
-0.672178
-12.7154
0.683324
-8.47899
0.705297
-8.52582
-0.668072
-46.9341
-46.8333
-48.4438
-46.8153
-48.4656
-46.9356
-46.8375
-48.4406
-46.8216
-48.4618
-40.0317
-37.8198
-38.3008
-38.2901
-40.0345
-43.5042
-43.9358
-45.763
-41.7492
-45.7711
-41.7085
-43.4941
-41.3222
-41.3477
-40.0319
-37.8201
-38.3017
-38.2906
-40.0356
-43.5059
-43.9371
-45.7769
-41.7535
-45.7736
-41.7094
-43.502
-36.1845
-37.8294
-37.0007
-37.0174
-37.0082
-37.0033
-36.2105
-37.4403
-30.7607
-50.3799
-32.5042
-50.719
-32.483
-37.4589
)
;

boundaryField
{
    fixedWalls
    {
        type            zeroGradient;
    }
    frontAndBack
    {
        type            empty;
    }
    right
    {
        type            fixedValue;
        value           uniform 0;
    }
    left
    {
        type            zeroGradient;
    }
    model
    {
        type            zeroGradient;
    }
}


// ************************************************************************* //
