/*--------------------------------*- C++ -*----------------------------------*\
  =========                 |
  \\      /  F ield         | OpenFOAM: The Open Source CFD Toolbox
   \\    /   O peration     | Website:  https://openfoam.org
    \\  /    A nd           | Version:  7
     \\/     M anipulation  |
\*---------------------------------------------------------------------------*/
FoamFile
{
    version     2.0;
    format      ascii;
    class       surfaceScalarField;
    location    "1";
    object      phi;
}
// * * * * * * * * * * * * * * * * * * * * * * * * * * * * * * * * * * * * * //

dimensions      [0 3 -1 0 0 0 0];

internalField   nonuniform List<scalar> 
2879
(
2.34332e-05
-3.22767e-06
2.65358e-05
-3.10256e-06
3.00057e-05
-3.46991e-06
3.44346e-05
-4.42893e-06
4.02585e-05
-5.82387e-06
4.76789e-05
-7.42038e-06
5.65763e-05
-8.89744e-06
6.64582e-05
-9.88189e-06
7.65248e-05
-1.00666e-05
8.56076e-05
-9.08279e-06
9.07266e-05
-5.11901e-06
8.94081e-05
1.31847e-06
8.32669e-05
6.14126e-06
7.54282e-05
7.83867e-06
6.85745e-05
6.85373e-06
6.44672e-05
4.10723e-06
6.47508e-05
-2.83582e-07
7.24625e-05
-7.7117e-06
9.59597e-05
-2.34972e-05
-5.3944e-05
6.09056e-05
-7.81494e-06
6.62555e-05
-8.45246e-06
7.30562e-05
-1.02706e-05
8.19727e-05
-1.33455e-05
9.35753e-05
-1.74265e-05
0.000108137
-2.1982e-05
0.000125423
-2.61836e-05
0.000144606
-2.90646e-05
0.000164468
-2.99289e-05
0.000183495
-2.81094e-05
0.000196197
-1.78214e-05
0.000197513
2.53571e-09
0.000189391
1.42629e-05
0.000176698
2.05325e-05
0.000163829
1.97223e-05
0.00015371
1.42266e-05
0.00014823
5.19646e-06
0.000148491
-7.97303e-06
0.000153162
-2.81678e-05
-5.06705e-05
8.67128e-05
-1.22789e-05
9.22236e-05
-1.39632e-05
9.96803e-05
-1.77273e-05
0.000109808
-2.34734e-05
0.000123188
-3.08067e-05
0.000140092
-3.8886e-05
0.000160145
-4.62364e-05
0.000182347
-5.12665e-05
0.000205696
-5.32775e-05
0.00022905
-5.14637e-05
0.000245294
-3.40652e-05
0.000246557
-1.26103e-06
0.000236201
2.46191e-05
0.000222014
3.47194e-05
0.000207702
3.40342e-05
0.000195285
2.66438e-05
0.000185711
1.47704e-05
0.000178001
-2.62498e-07
0.000168505
-1.86722e-05
-3.20226e-05
0.0001011
-1.58795e-05
0.000105683
-1.85462e-05
0.000112253
-2.42974e-05
0.000121594
-3.28144e-05
0.000134302
-4.35144e-05
0.000150511
-5.50956e-05
0.000169347
-6.50722e-05
0.000189341
-7.12599e-05
0.000210172
-7.41091e-05
0.000231797
-7.30886e-05
0.000245905
-1.43339e-05
-9.75799e-06
-1.43317e-05
-9.74928e-06
0.000239072
-1.20692e-06
3.98485e-06
-1.19649e-06
3.99056e-06
0.000222651
4.10401e-05
0.000209693
4.76774e-05
0.000198985
4.47422e-05
0.000190274
3.53547e-05
0.000183075
2.19696e-05
0.000176319
6.49347e-06
0.000166356
-8.70965e-06
-1.54806e-05
0.000105983
-1.8078e-05
0.000109017
-2.15803e-05
0.000113799
-2.90792e-05
0.000121099
-4.0114e-05
0.000131428
-5.38434e-05
0.000144488
-6.8156e-05
0.000157938
-7.85226e-05
0.000168031
-8.13523e-05
0.000175155
-8.12329e-05
4.54667e-05
-1.74814e-05
3.67368e-05
4.54632e-05
3.67162e-05
-1.3675e-05
-1.74865e-05
-1.3674e-05
4.75976e-05
-1.64649e-05
3.74222e-11
-4.71605e-05
4.55677e-05
6.08894e-10
6.04349e-07
-4.12696e-07
-4.09018e-07
6.02698e-07
0.000142512
9.35776e-06
-4.12867e-05
-2.83963e-05
-4.12808e-05
-2.83893e-05
9.58227e-06
9.35819e-06
9.58298e-06
0.00014467
4.55191e-05
0.000147879
4.15335e-05
0.00015076
3.24737e-05
0.000153205
1.95248e-05
0.000154971
4.72734e-06
0.000154524
-8.26238e-06
-1.07348e-05
0.000104275
-1.85162e-05
0.000105328
-2.26336e-05
0.000107662
-3.14134e-05
0.000111881
-4.43326e-05
0.000118258
-6.02202e-05
0.000125745
-7.56432e-05
0.000130135
-8.29123e-05
0.000119598
-1.89252e-05
-1.64822e-05
-1.89259e-05
-1.64827e-05
2.62635e-05
-1.34811e-05
1.75523e-05
2.62569e-05
1.75453e-05
-1.11464e-05
-1.34815e-05
-1.11436e-05
2.31415e-05
-1.43588e-05
-4.75023e-10
2.81374e-06
-4.765e-06
3.24862e-10
4.15042e-06
-2.19948e-06
-2.57114e-06
1.20908e-05
5.31725e-06
7.28391e-11
-2.57277e-06
-1.45421e-06
-1.45228e-06
7.06074e-05
2.25581e-05
-1.44635e-05
-9.35943e-06
-1.44636e-05
-9.35991e-06
8.80194e-05
2.41216e-05
0.000102477
1.80156e-05
0.00011555
6.45237e-06
0.000128115
-7.83747e-06
0.000140252
-2.04001e-05
-2.02334e-05
9.93594e-05
-1.69835e-05
9.80999e-05
-2.13741e-05
9.73551e-05
-3.06686e-05
9.73614e-05
-4.43389e-05
9.80471e-05
-6.09059e-05
9.79905e-05
-7.55866e-05
2.3436e-05
-1.84925e-05
1.93475e-05
2.34358e-05
1.93467e-05
-1.67519e-05
-1.84921e-05
-1.67513e-05
2.13438e-05
-1.6833e-05
-2.81411e-11
1.25335e-05
-4.5286e-11
-1.82136e-05
-1.70651e-06
-2.19465e-06
-2.19468e-06
-1.70507e-06
1.51035e-06
-1.61991e-06
2.46595e-10
1.25119e-06
-1.14188e-06
-3.4149e-07
-1.31047e-08
-1.97136e-10
2.32776e-07
1.22015e-07
2.79996e-05
4.7507e-06
-3.12584e-06
-1.97059e-06
-3.12551e-06
-1.97028e-06
4.71483e-05
4.97287e-06
6.65715e-05
-1.40758e-06
8.6309e-05
-1.32851e-05
0.000106968
-2.8496e-05
0.000129046
-4.24789e-05
-4.09291e-05
9.46814e-05
-1.34883e-05
9.09009e-05
-1.75936e-05
8.65115e-05
-2.62792e-05
8.12409e-05
-3.90683e-05
7.43863e-05
-5.40513e-05
1.73453e-05
-6.43955e-05
1.42519e-05
1.73454e-05
1.42526e-05
1.57034e-05
-1.68507e-05
1.45937e-11
-1.41775e-11
1.32587e-05
-1.31138e-05
1.5913e-06
2.24242e-06
2.24443e-06
1.58973e-06
-1.64927e-06
-2.25752e-06
-2.25851e-06
-1.64744e-06
9.9221e-07
-9.92302e-07
9.2197e-11
6.60148e-08
-1.15422e-11
-9.95887e-09
-5.60444e-08
1.23861e-05
-6.59883e-06
-2.95067e-07
-2.23398e-07
-2.94865e-07
-2.23259e-07
2.95693e-05
-1.22103e-05
5.00286e-05
-2.18668e-05
7.2553e-05
-3.58096e-05
9.70284e-05
-5.29714e-05
0.00012381
-6.92601e-05
-6.68764e-05
9.35593e-05
-8.19269e-06
8.72459e-05
-1.12802e-05
7.88408e-05
-1.78741e-05
6.75718e-05
-2.77993e-05
5.37297e-05
-4.02093e-05
9.73955e-06
-1.15114e-05
7.6399e-06
9.73969e-06
7.63914e-06
-1.12008e-05
-1.15116e-05
-1.12002e-05
-1.10428e-05
3.98403e-11
1.4077e-05
1.53215e-06
1.81957e-06
1.82158e-06
1.53198e-06
1.33148e-06
-7.89665e-07
3.19309e-10
-5.42138e-07
2.5241e-08
-3.08175e-13
-2.32698e-09
-2.29137e-08
1.46621e-05
-1.83012e-05
-5.62296e-07
-9.17345e-07
-5.6243e-07
-9.17613e-07
3.18817e-05
-2.94299e-05
5.25157e-05
-4.25008e-05
7.51273e-05
-5.84212e-05
9.92062e-05
-7.70503e-05
0.000125003
-9.50572e-05
-9.16722e-05
9.91574e-05
-1.51022e-06
9.06026e-05
-2.72535e-06
7.81669e-05
-5.43841e-06
6.01184e-05
-9.75085e-06
9.67588e-06
-1.61943e-05
8.37566e-06
9.67616e-06
8.37571e-06
7.06725e-06
-8.9028e-06
1.62434e-12
2.01311e-06
-1.20604e-06
1.01293e-10
9.41526e-07
-1.7487e-06
8.58323e-08
4.38812e-11
1.46721e-07
-2.32597e-07
3.25704e-05
-3.51984e-05
-3.23168e-06
-4.60489e-06
-3.23168e-06
-4.60495e-06
5.14838e-05
-4.83433e-05
7.16364e-05
-6.26534e-05
9.19769e-05
-7.87617e-05
0.000111895
-9.69686e-05
0.000131654
-0.000114816
-0.000109871
0.000114415
5.84028e-06
0.000104505
7.18484e-06
8.90214e-05
1.00454e-05
6.48059e-05
1.44647e-05
7.92132e-06
1.76571e-05
7.55736e-06
7.92025e-06
7.55555e-06
4.17813e-06
-2.08924e-06
-7.9251e-11
5.83252e-06
8.18179e-07
-3.9145e-07
1.00303e-10
1.54384e-07
-5.81213e-07
4.92988e-05
-4.00422e-05
4.08819e-06
4.99632e-06
4.08791e-06
4.99661e-06
-5.45901e-06
-8.25423e-06
-5.45845e-06
-8.25388e-06
6.81098e-05
-5.40095e-05
8.69874e-05
-6.72208e-05
0.000104627
-8.02933e-05
0.000120044
-9.41784e-05
0.000132532
-0.000109457
0.000142286
-0.00012457
-0.00011751
0.000141709
1.27811e-05
0.000132098
1.67955e-05
0.000116136
2.60075e-05
8.8576e-05
4.20247e-05
9.67765e-06
6.36149e-05
1.16334e-05
9.67569e-06
1.16314e-05
-2.06002e-06
8.70064e-06
-1.50827e-10
7.35616e-07
7.83006e-07
7.83012e-07
7.35542e-07
8.92921e-08
-8.94944e-08
-2.14546e-12
2.04478e-10
3.87227e-07
-7.19851e-07
6.74472e-06
-4.87292e-06
-3.25832e-11
3.864e-07
3.52299e-07
3.52843e-07
-7.21113e-07
-9.53993e-07
-9.55575e-07
7.97489e-05
-4.976e-05
5.11896e-06
5.94393e-06
5.11909e-06
5.94412e-06
-1.0792e-05
-1.52661e-05
-1.07911e-05
-1.52659e-05
0.000101077
-6.13701e-05
0.000119779
-7.2712e-05
0.000135518
-8.29591e-05
0.000147736
-9.25114e-05
0.000155543
-0.000101986
0.000158087
-0.000112001
0.000155311
-0.000121794
-0.000112187
0.000181294
1.79898e-05
0.000174556
2.35329e-05
0.000163735
3.68287e-05
0.000144206
6.15533e-05
2.1228e-05
0.000101929
3.17203e-05
2.12245e-05
3.17192e-05
-1.65773e-05
2.8371e-05
-2.91189e-10
2.69528e-06
2.02107e-06
2.01942e-06
2.69879e-06
-3.40971e-07
4.65032e-11
9.01695e-07
-5.60771e-07
1.00139e-06
-1.16362e-05
1.64126e-05
-8.85497e-06
2.53675e-11
1.00122e-06
1.0368e-06
1.03912e-06
0.000130702
-6.30426e-05
8.1413e-06
8.76344e-06
8.14067e-06
8.76323e-06
-2.15301e-05
-2.92042e-05
-2.15299e-05
-2.92039e-05
0.00015194
-7.09979e-05
0.000169576
-7.90059e-05
0.000182902
-8.60379e-05
0.000191758
-9.18155e-05
0.000195644
-9.63973e-05
0.000193733
-0.000100075
0.000185009
-0.000103277
0.000169016
-0.0001058
-9.32278e-05
0.000228701
2.0532e-05
0.000226424
2.581e-05
0.000224757
3.84963e-05
0.00022603
6.02805e-05
5.30774e-05
9.17754e-05
6.50138e-05
5.30777e-05
6.50146e-05
-3.67626e-05
5.41423e-05
3.56977e-05
4.09452e-11
-1.65604e-05
-1.21066e-09
1.19717e-05
4.58993e-06
1.63826e-06
-3.76857e-05
3.82195e-05
-6.73125e-06
1.17307e-10
1.63729e-06
1.46062e-06
1.46115e-06
0.000208257
-4.77052e-05
9.13798e-06
9.96712e-06
9.13806e-06
9.96707e-06
-4.16386e-05
-5.77418e-05
-4.16391e-05
-5.77424e-05
0.000219989
-6.26953e-05
1.26235e-05
1.28578e-05
1.26236e-05
1.2858e-05
0.000229947
-7.30001e-05
0.000239182
-8.02336e-05
0.000245624
-8.54475e-05
0.000248449
-8.88629e-05
0.000247034
-9.04003e-05
0.000240641
-9.00045e-05
0.000228307
-8.7741e-05
0.000208786
-8.37567e-05
0.000181037
-7.80519e-05
-6.23043e-05
0.000274619
2.02269e-05
0.000276244
2.41851e-05
0.000281459
3.32814e-05
0.000295146
4.65942e-05
0.000324373
6.25476e-05
0.000365238
7.73788e-05
-3.08175e-05
-2.83058e-05
-3.08165e-05
-2.83037e-05
0.000371057
4.48732e-05
-1.87174e-05
-6.62942e-06
-1.87149e-05
-6.6299e-06
0.000354408
-1.38681e-06
2.97674e-06
6.04011e-06
2.97724e-06
6.04088e-06
0.000339665
-3.29614e-05
0.00032985
-5.28805e-05
0.000322667
-6.58172e-05
0.000316412
-7.39787e-05
0.000309399
-7.84342e-05
0.000300327
-7.97908e-05
0.000288252
-7.83253e-05
0.000272291
-7.40439e-05
0.000251396
-6.68454e-05
0.000224101
-5.64619e-05
0.000188742
-4.26935e-05
-2.37359e-05
0.000306785
1.76747e-05
0.000310755
2.02151e-05
0.00031828
2.57565e-05
0.000331669
3.32051e-05
0.000353705
4.05115e-05
0.000385503
4.55812e-05
0.000401372
2.9004e-05
0.000399546
4.3966e-07
0.000390855
-2.42704e-05
0.000379635
-4.16611e-05
0.000367023
-5.32051e-05
0.000353195
-6.01504e-05
0.000337966
-6.32056e-05
0.000321014
-6.28381e-05
0.000301969
-5.9281e-05
0.000280422
-5.24962e-05
0.000255622
-4.20455e-05
0.000226172
-2.70118e-05
0.00018988
-6.40199e-06
1.59163e-05
0.00031246
1.3675e-05
0.000317531
1.51438e-05
0.000325223
1.80642e-05
0.000336753
2.1675e-05
0.000353066
2.41991e-05
0.000374166
2.44811e-05
0.000388249
1.49205e-05
0.000390876
-2.18666e-06
0.000385239
-1.86332e-05
0.000374502
-3.09242e-05
0.000360138
-3.88419e-05
0.000343069
-4.30814e-05
0.000324006
-4.4142e-05
0.000303547
-4.23798e-05
0.000282166
-3.79001e-05
0.000260112
-3.04415e-05
0.000237181
-1.91151e-05
0.00021265
-2.48009e-06
0.000183312
2.29359e-05
4.8949e-05
0.000281065
8.90211e-06
0.000286704
9.50481e-06
0.00029419
1.05778e-05
0.000304081
1.17846e-05
0.000316109
1.21708e-05
0.000329568
1.10221e-05
0.000339004
5.48435e-06
0.000340536
-3.71826e-06
0.000334626
-1.27234e-05
0.00032307
-1.93686e-05
0.000307436
-2.32077e-05
0.000289064
-2.47089e-05
0.000269212
-2.42905e-05
0.000249041
-2.22083e-05
0.000229624
-1.84835e-05
0.000211849
-1.26661e-05
0.000196397
-3.66388e-06
0.000182625
1.12926e-05
0.000168781
3.67794e-05
6.74062e-05
0.000205817
3.83608e-06
0.000211498
3.8242e-06
0.000218239
3.8361e-06
0.000226096
3.92788e-06
0.000234507
3.76008e-06
0.000242515
3.01372e-06
0.000247179
8.20162e-07
0.000245956
-2.49537e-06
0.000238742
-5.50879e-06
0.000226838
-7.46518e-06
0.000211927
-8.29659e-06
0.000195499
-8.28077e-06
0.000178878
-7.66928e-06
0.000163243
-6.57358e-06
0.000149713
-4.95371e-06
0.000139523
-2.47559e-06
0.000134095
1.76438e-06
0.000135529
9.85804e-06
0.000144746
2.75624e-05
6.17833e-05
8.39675e-05
8.77917e-05
9.16278e-05
9.55557e-05
9.93158e-05
0.00010233
0.00010315
0.000100654
9.51455e-05
8.76803e-05
7.93837e-05
7.1103e-05
6.34337e-05
5.68601e-05
5.19064e-05
4.94308e-05
5.11952e-05
6.10532e-05
8.86157e-05
7.32351e-10
-2.70763e-06
-1.95742e-06
-1.95569e-06
-2.70086e-06
-1.23859e-10
-2.817e-06
-2.39889e-06
-2.40228e-06
8.648e-06
6.70201e-06
6.70831e-06
8.64562e-06
6.36386e-06
-1.99068e-06
1.82292e-09
1.52984e-06
-5.90485e-06
4.75874e-05
-1.64559e-05
4.71514e-05
-2.70513e-06
-1.95569e-06
-1.956e-06
-2.6957e-06
-2.81691e-06
8.64621e-06
6.69621e-06
6.70727e-06
8.64227e-06
-2.81857e-06
-2.39647e-06
-2.39986e-06
6.35227e-06
-1.97869e-06
9.52846e-10
1.52728e-06
-5.90181e-06
8.26536e-06
4.07521e-10
3.60226e-10
1.94382e-07
6.16912e-06
4.31727e-10
1.52504e-06
-7.58364e-06
-5.33305e-06
-5.33511e-06
-7.5869e-06
1.52696e-06
1.32676e-06
1.32856e-06
4.55589e-05
6.05376e-07
-4.07881e-07
-4.05538e-07
6.04583e-07
8.26909e-06
2.9809e-10
1.89881e-07
6.16209e-06
1.52488e-06
-7.58169e-06
-5.32873e-06
-5.33326e-06
-7.58287e-06
1.52692e-06
1.32653e-06
1.32839e-06
-9.31089e-10
4.76668e-06
3.41888e-06
3.42015e-06
-2.12934e-06
-1.32325e-06
-1.32506e-06
-2.12562e-06
-4.68735e-10
-1.51841e-06
-1.25103e-06
-1.25072e-06
2.65243e-06
1.70992e-06
1.70943e-06
2.65269e-06
2.31265e-05
-1.43566e-05
4.76301e-06
-2.12889e-06
-1.32812e-06
-1.32808e-06
-2.12541e-06
4.76491e-06
3.41579e-06
3.41839e-06
-1.50975e-06
2.65048e-06
1.7083e-06
1.70847e-06
2.64942e-06
-1.51776e-06
-1.25063e-06
-1.25019e-06
3.11428e-10
-1.99099e-06
3.56136e-10
4.13511e-06
-2.18937e-06
7.52555e-11
-1.97877e-06
-6.91485e-10
-2.2452e-06
1.19979e-06
2.47469e-07
1.31003e-08
4.91512e-11
-2.60619e-07
2.57041e-06
-6.8767e-10
-2.24427e-06
1.19943e-06
2.46777e-07
1.33678e-08
1.28742e-10
-2.60274e-07
7.20959e-06
4.16336e-11
5.20211e-06
1.42094e-11
3.39626e-07
3.75612e-07
3.7672e-07
-2.46892e-07
-4.11261e-07
-4.12697e-07
4.27709e-11
3.05222e-06
1.20908e-05
5.31633e-06
-2.57237e-06
-1.45395e-06
-1.45217e-06
7.21023e-06
5.20105e-06
3.41089e-07
-2.46911e-07
-4.11218e-07
-4.12778e-07
3.3965e-07
3.7546e-07
3.76781e-07
3.05141e-06
1.76381e-10
1.62709e-06
1.14177e-06
1.1417e-06
-1.08616e-06
-9.86089e-07
-9.85385e-07
-1.08598e-06
-2.13935e-06
-2.12382e-10
1.62279e-06
1.50899e-06
1.25305e-05
-1.82128e-05
-1.70628e-06
-2.19402e-06
-2.19433e-06
-1.70462e-06
1.61925e-06
-1.08556e-06
-9.85773e-07
-9.85113e-07
-1.08487e-06
1.62649e-06
1.14144e-06
1.14122e-06
-9.91941e-07
-2.13825e-06
-1.58948e-10
1.62261e-06
1.50775e-06
2.52519e-10
1.25079e-06
-1.14155e-06
-4.32479e-12
1.33663e-08
1.52965e-12
1.33425e-06
3.60172e-11
-3.1276e-07
-3.91053e-07
-3.91121e-07
-3.12979e-07
2.47493e-11
4.55129e-08
2.04771e-08
3.7914e-11
-2.0385e-07
-1.15235e-07
-1.01266e-07
-1.00885e-07
-1.15143e-07
-2.12867e-10
2.32841e-07
1.21828e-07
1.33404e-06
-3.12827e-07
-3.91051e-07
-3.91189e-07
-3.13029e-07
-6.60731e-08
2.19936e-11
4.56218e-08
2.04293e-08
-2.03827e-07
-1.15224e-07
-1.01151e-07
-1.00897e-07
-1.15102e-07
1.62947e-06
5.95207e-10
-1.63591e-06
-9.86458e-07
-1.4842e-06
-7.39208e-10
1.74198e-06
1.07444e-06
1.3258e-05
-1.31128e-05
1.59124e-06
2.24192e-06
2.24413e-06
1.58969e-06
-1.64931e-06
-2.25708e-06
-2.25826e-06
-1.64758e-06
9.92038e-07
1.62934e-06
6.06379e-10
-1.63556e-06
-9.86427e-07
-1.33121e-06
-1.48412e-06
-7.54772e-10
1.74167e-06
1.07441e-06
9.66984e-11
-5.62988e-07
3.11188e-11
1.62783e-08
1.58626e-08
1.56065e-08
1.62929e-08
-9.41125e-12
3.44413e-08
-9.19091e-09
2.15502e-12
-8.64927e-07
2.14168e-08
1.77841e-08
1.77846e-08
2.15525e-08
-2.21276e-11
-9.81138e-09
-5.62396e-08
-5.62492e-07
1.6245e-08
1.58005e-08
1.55317e-08
1.62542e-08
-2.5269e-08
-2.90863e-12
3.46914e-08
-9.41952e-09
-8.64571e-07
2.14936e-08
1.79098e-08
1.79089e-08
2.15103e-08
2.21993e-06
5.83017e-10
-1.43947e-06
-1.57071e-06
-3.61928e-11
-2.01431e-06
-1.60551e-06
-1.60641e-06
1.09171e-06
8.2737e-07
8.26874e-07
1.09054e-06
-6.47158e-11
4.58114e-07
-4.58049e-07
-1.10399e-05
1.40749e-05
1.53211e-06
1.81939e-06
1.8213e-06
1.53197e-06
7.89659e-07
2.21952e-06
5.53204e-10
-1.43925e-06
-1.57048e-06
-2.01236e-06
1.09132e-06
8.28053e-07
8.27477e-07
1.08972e-06
-2.01397e-06
-1.60495e-06
-1.60613e-06
-3.84349e-11
4.59042e-07
-4.59004e-07
3.06603e-10
-5.4186e-07
-1.3922e-06
-1.32528e-11
-9.27599e-09
-8.19205e-09
-8.1833e-09
-9.35741e-09
-2.21412e-11
3.98844e-08
4.59701e-08
-2.10537e-11
-1.97934e-06
-6.44704e-08
-1.00412e-07
-1.00686e-07
-6.46194e-08
4.26397e-12
-2.23806e-09
-2.30352e-08
-1.39193e-06
-9.20545e-09
-8.32715e-09
-8.35609e-09
-9.1976e-09
-8.60375e-08
5.99448e-13
3.99036e-08
4.61333e-08
-1.97938e-06
-6.43938e-08
-1.00543e-07
-1.00675e-07
-6.45691e-08
-5.28912e-07
-9.74938e-12
1.12023e-06
2.26874e-07
-1.20574e-06
9.59377e-11
9.41232e-07
-1.74795e-06
-8.16908e-07
-5.29616e-07
-5.88502e-11
1.11882e-06
2.2776e-07
3.42725e-07
-3.59128e-07
2.15995e-11
3.23815e-07
-3.07434e-07
3.42818e-07
-3.59134e-07
3.03525e-11
3.23751e-07
-3.07465e-07
-3.81374e-06
3.81714e-11
-3.9037e-07
-3.08204e-07
-3.07797e-07
-3.90941e-07
3.42233e-06
1.55465e-11
5.27472e-07
3.94112e-07
3.93194e-07
5.27665e-07
-3.44485e-07
-2.44756e-07
-2.44635e-07
3.46192e-11
2.61612e-11
1.46782e-07
-2.32845e-07
-3.81355e-06
-3.90412e-07
-3.08263e-07
-3.07935e-07
-3.90865e-07
3.42187e-06
-3.44528e-07
-2.4483e-07
-2.44683e-07
5.27504e-07
3.94462e-07
3.93404e-07
5.27544e-07
-2.86908e-06
-1.23791e-10
5.63603e-06
3.91788e-07
3.14386e-07
3.13683e-07
3.40822e-06
-1.27998e-10
-1.62548e-10
1.29254e-07
-1.3712e-07
1.29306e-07
1.97e-07
1.96796e-07
-1.36521e-07
7.99791e-08
8.0607e-08
4.17677e-06
-2.09e-06
5.8334e-06
-2.86876e-06
3.91964e-07
5.63598e-06
3.92012e-07
3.12632e-07
3.1282e-07
3.40621e-06
2.05922e-06
1.28895e-07
-1.37204e-07
1.29133e-07
1.95961e-07
1.96284e-07
-1.36461e-07
7.99957e-08
8.06863e-08
-4.69315e-11
2.18593e-07
3.87954e-11
1.53661e-07
-5.78644e-07
-8.87161e-08
-3.43156e-11
2.17645e-07
-8.80884e-11
3.87315e-07
1.05597e-06
-6.44323e-07
-2.49194e-10
4.55655e-07
-8.67049e-07
-3.86407e-07
-7.44578e-11
3.86482e-07
1.05584e-06
-6.44644e-07
-2.61561e-10
4.55607e-07
-8.66544e-07
-4.4149e-06
-1.9614e-12
-7.04868e-07
-4.84596e-07
-4.84686e-07
-7.04445e-07
3.60695e-07
3.07384e-07
3.0728e-07
6.72521e-06
2.74967e-11
5.83616e-07
4.2274e-07
4.2247e-07
5.82367e-07
-1.05764e-06
-7.52252e-07
-7.51614e-07
1.41326e-11
-4.41459e-06
3.60701e-07
3.07417e-07
3.07258e-07
-7.04764e-07
-4.84629e-07
-4.84688e-07
-7.04293e-07
6.72434e-06
-1.05748e-06
-7.51769e-07
-7.51334e-07
5.83606e-07
4.22767e-07
4.22467e-07
5.82367e-07
7.93717e-11
-3.36207e-07
1.09513e-07
-1.7377e-10
8.36321e-07
1.04258e-06
1.04173e-06
8.36205e-07
7.99528e-07
1.23629e-10
-5.36895e-07
-2.62756e-07
8.69884e-06
7.35366e-07
7.8268e-07
7.82869e-07
7.35003e-07
8.911e-08
9.88563e-11
-3.36063e-07
1.09649e-07
1.65741e-05
8.3621e-07
1.0423e-06
1.04161e-06
8.35857e-07
7.99137e-07
1.46089e-10
-5.36532e-07
-2.62751e-07
-2.84453e-12
3.96744e-10
1.16934e-06
-6.82212e-07
5.06883e-11
3.4508e-07
-8.32259e-07
1.16919e-06
-6.82368e-07
4.0604e-11
3.44296e-07
-8.31162e-07
4.49265e-10
-2.86111e-07
-4.34189e-07
-4.0215e-10
5.51419e-07
1.61971e-06
3.67456e-11
9.78776e-06
-5.56159e-06
5.34802e-07
6.34194e-07
6.37391e-07
5.3585e-07
-1.38568e-06
-1.89806e-06
-1.89883e-06
-1.38587e-06
7.19698e-07
4.48041e-10
-2.86074e-07
-4.34072e-07
-1.0015e-06
-4.07605e-10
5.51816e-07
1.61929e-06
9.78707e-06
-5.56093e-06
5.34752e-07
6.33814e-07
6.37093e-07
5.35799e-07
-1.3854e-06
-1.89803e-06
-1.89879e-06
-1.38534e-06
-6.55343e-06
1.27432e-11
6.45819e-07
6.07533e-07
6.08503e-07
1.30561e-05
1.6351e-12
7.23751e-12
6.74481e-06
-4.87199e-06
3.85962e-07
3.51749e-07
3.52527e-07
-7.20952e-07
-9.53559e-07
-9.55287e-07
-6.55314e-06
6.45925e-07
6.07756e-07
6.08548e-07
1.30558e-05
-2.07831e-11
-6.53866e-07
1.45341e-06
-6.98136e-11
4.73614e-06
6.92629e-06
6.93333e-06
4.73296e-06
1.06097e-05
2.81777e-09
-5.1991e-06
-5.41339e-06
2.83619e-05
2.69596e-06
2.02127e-06
2.01996e-06
2.69918e-06
3.73264e-11
-6.54143e-07
1.45324e-06
3.67549e-05
4.73768e-06
6.92298e-06
6.9307e-06
4.73481e-06
1.06098e-05
2.1849e-09
-5.20595e-06
-5.40607e-06
2.62237e-06
-1.19832e-06
5.39631e-10
6.24037e-07
-2.04862e-06
2.62222e-06
-1.19928e-06
5.5705e-10
6.23446e-07
-2.04695e-06
-1.23702e-11
-3.40958e-07
-1.51561e-10
8.74281e-07
3.3865e-06
1.02037e-10
1.61194e-05
-6.59961e-06
5.49878e-07
6.4458e-07
6.43901e-07
5.50475e-07
-2.23149e-06
-3.72211e-06
-3.71995e-06
-2.23519e-06
3.40837e-07
-1.30083e-11
-3.40824e-07
-1.63769e-06
-2.35736e-10
8.74419e-07
3.38573e-06
1.61172e-05
-6.59772e-06
5.4983e-07
6.44411e-07
6.43773e-07
5.5047e-07
-2.23152e-06
-3.72187e-06
-3.71962e-06
-2.2349e-06
-7.22716e-06
9.55285e-12
-2.16728e-06
-1.37477e-06
-1.37322e-06
-2.16729e-06
6.84006e-07
6.54355e-07
6.52907e-07
2.05169e-05
3.61677e-11
1.27714e-06
1.09327e-06
1.09377e-06
1.2763e-06
2.97567e-11
2.32568e-05
4.99495e-11
9.0147e-07
-5.60684e-07
-7.22561e-06
1.16353e-05
6.84039e-07
6.53675e-07
6.52477e-07
-2.16698e-06
-1.37507e-06
-1.37333e-06
-2.16683e-06
2.05154e-05
1.27699e-06
1.09322e-06
1.09372e-06
1.27606e-06
2.32568e-05
9.77295e-08
-2.54058e-10
-1.23719e-05
-9.75165e-06
-9.79459e-06
-1.23546e-05
1.19472e-06
2.04876e-06
2.04782e-06
7.20068e-05
-1.13325e-10
-7.38125e-05
-3.49026e-06
-4.95422e-06
-4.95881e-06
-3.50834e-06
-1.51735e-11
6.54751e-05
-1.65587e-05
-1.32626e-09
1.19707e-05
4.58939e-06
1.05193e-07
3.76817e-05
1.19534e-06
2.04707e-06
2.04698e-06
-1.23704e-05
-9.75584e-06
-9.79828e-06
-1.23513e-05
7.20005e-05
-7.38109e-05
-3.48836e-06
-4.95319e-06
-4.95815e-06
-3.50491e-06
6.54758e-05
2.13327e-06
-2.13324e-06
-3.64429e-10
3.35894e-10
4.14451e-06
-2.19413e-06
-3.68028e-10
2.25877e-09
-2.13399e-06
3.88327e-06
-1.34489e-09
2.13436e-06
-9.13609e-07
3.87755e-06
2.0053e-10
-9.08068e-07
-5.03149e-10
-3.56678e-11
-1.84435e-06
1.84439e-06
-1.84377e-06
1.84374e-06
-1.04012e-11
-1.33519e-05
-4.77571e-11
1.57733e-05
-3.30023e-11
-8.62037e-11
2.13782e-06
2.84066e-06
2.84129e-06
-1.63131e-06
-2.13736e-06
-2.13952e-06
2.13428e-05
-1.68329e-05
-1.33527e-05
1.57718e-05
2.13719e-06
2.83968e-06
2.84078e-06
-1.63116e-06
-2.13708e-06
-2.13936e-06
1.25055e-06
-1.14159e-06
-3.34978e-11
1.55262e-10
-1.14937e-10
-1.17899e-11
-4.82905e-12
-2.16742e-07
-1.31007e-07
-2.12525e-10
3.51984e-08
3.36087e-12
2.31174e-07
1.21789e-07
-1.3541e-08
7.27656e-12
-3.26244e-11
2.17368e-07
9.2385e-11
1.31044e-07
-9.12136e-09
-1.3572e-12
-9.1323e-09
6.89703e-12
3.52207e-08
-1.41623e-05
1.00686e-11
1.14782e-05
2.76626e-11
3.95922e-11
1.48514e-06
2.01635e-06
2.01799e-06
-2.22152e-06
-2.62246e-06
-2.6239e-06
1.57034e-05
-1.68501e-05
-1.41607e-05
1.14775e-05
1.48502e-06
2.01627e-06
2.01798e-06
-2.2213e-06
-2.62208e-06
-2.62367e-06
9.9302e-07
-9.92925e-07
-3.03959e-12
1.18396e-07
1.09466e-08
-2.95142e-11
-1.13038e-07
2.84751e-12
-9.99479e-09
-5.60773e-08
6.6057e-08
3.54831e-12
-3.48985e-11
-1.18395e-07
1.24334e-07
4.33306e-12
-1.10078e-08
-4.50409e-08
1.23969e-07
4.42671e-12
-4.51293e-08
2.86424e-12
-1.1314e-07
-5.4225e-07
1.33256e-06
-7.89994e-07
2.27453e-13
-4.46945e-11
-5.42094e-07
-5.42296e-07
1.35661e-12
1.04172e-07
-1.86745e-10
1.36539e-11
-1.13275e-07
-5.16344e-13
-2.29226e-09
-2.29644e-08
2.52524e-08
3.94194e-12
1.24341e-11
-1.04144e-07
9.36121e-08
-6.14108e-12
2.59757e-10
-2.31673e-08
9.36997e-08
9.41668e-12
-2.31556e-08
-1.70912e-12
-1.13228e-07
-8.51308e-06
8.4917e-12
1.20742e-06
9.82926e-07
9.83185e-07
5.3054e-06
-1.64472e-11
1.58259e-11
5.29733e-07
6.846e-07
6.85084e-07
7.06791e-06
-8.90339e-06
-8.5118e-06
1.20736e-06
9.83123e-07
9.83271e-07
5.30569e-06
5.30125e-07
6.84891e-07
6.85259e-07
1.1819e-06
-6.47409e-07
2.21881e-10
3.87043e-07
-9.21754e-07
-4.90077e-12
9.42007e-07
-1.7488e-06
-1.07789e-12
4.59299e-10
-1.18249e-06
5.18042e-07
-2.06665e-10
6.47785e-07
-1.41336e-06
5.17956e-07
1.37938e-12
-1.41324e-06
2.49954e-12
3.871e-07
-9.2158e-07
3.76753e-07
-2.39593e-07
-5.95021e-11
1.38539e-12
1.46721e-07
-2.32539e-07
8.58597e-08
2.44132e-12
1.21838e-10
-3.77131e-07
2.15526e-07
-4.58946e-11
2.40466e-07
-7.8905e-08
2.15794e-07
5.27242e-12
-7.89838e-08
-5.5581e-13
1.48693e-07
-1.48707e-07
3.77946e-11
-2.37956e-11
1.53894e-07
-5.79482e-07
8.17413e-07
6.40345e-11
1.30585e-10
-1.49235e-07
3.03488e-07
-3.60939e-10
1.49197e-07
-4.15663e-07
3.02621e-07
9.66919e-11
-4.14731e-07
-1.36235e-10
4.84678e-07
-6.06207e-07
2.75566e-10
1.46241e-12
8.37527e-12
-4.84604e-07
-7.47495e-11
6.06406e-07
-1.83591e-07
3.32497e-15
-1.83813e-07
5.06942e-13
5.44518e-10
8.86765e-08
-8.92235e-08
3.77766e-13
1.09743e-11
1.93503e-10
5.56888e-10
-1.39639e-12
-2.27013e-07
-2.9404e-11
5.04674e-07
-2.77635e-07
3.0724e-12
-4.77784e-11
2.26876e-07
-2.26828e-07
-2.27062e-07
1.25322e-12
5.03624e-07
-2.76778e-07
6.87023e-11
3.89332e-07
-3.89402e-07
1.48143e-12
3.88729e-07
-3.8866e-07
8.83507e-07
-1.77418e-06
5.40885e-10
-2.18217e-12
9.02196e-07
-5.61524e-07
-3.40623e-07
-2.35679e-12
1.63869e-10
-8.85405e-07
4.12166e-07
-2.60082e-10
1.77585e-06
-1.2431e-06
4.12656e-07
-6.54343e-12
-1.24219e-06
-1.06333e-12
-1.0679e-05
2.61672e-11
2.70254e-05
1.57943e-11
1.52917e-11
1.64112e-05
-8.85498e-06
1.00124e-06
1.03707e-06
1.03927e-06
-1.06796e-05
2.70255e-05
3.22244e-05
2.14385e-10
1.65931e-05
1.40113e-05
1.40193e-05
-1.06271e-05
-9.01435e-06
-9.01531e-06
6.9894e-05
4.6821e-11
1.8008e-11
5.41371e-05
3.56956e-05
3.22208e-05
-1.06273e-05
-9.01211e-06
-9.01497e-06
1.65934e-05
1.40098e-05
1.40187e-05
6.98937e-05
-2.20529e-06
-1.36572e-05
4.54749e-10
-1.41799e-10
1.19948e-05
4.59706e-06
5.97898e-11
4.93772e-09
2.21508e-06
-2.98727e-10
1.36474e-05
-1.71163e-10
-1.55153e-11
-1.00189e-05
7.60691e-11
6.17206e-05
6.71105e-11
3.73462e-11
3.82168e-05
-6.73173e-06
1.63709e-06
1.46064e-06
1.46131e-06
-1.00199e-05
6.17214e-05
8.63424e-06
-2.69478e-06
7.82356e-10
1.25653e-10
1.5306e-06
-5.90222e-06
6.5312e-10
6.35942e-06
-1.98663e-06
2.96473e-10
-8.63728e-06
8.20941e-06
-1.52332e-09
2.69175e-06
-1.89307e-06
2.64122e-10
8.20918e-06
1.39428e-10
-1.89035e-06
8.63175e-06
-2.69148e-06
9.39098e-10
1.53066e-06
-5.90293e-06
6.35298e-06
-1.9791e-06
-3.91637e-11
-8.63285e-06
8.20448e-06
-1.49757e-09
2.68534e-06
-1.88944e-06
8.20663e-06
-1.88851e-06
-7.99134e-06
1.01156e-06
3.82319e-10
1.01805e-10
1.91669e-07
6.16801e-06
9.72078e-11
-4.08581e-10
7.9915e-06
-6.07739e-10
-1.00768e-06
8.96555e-11
9.97045e-11
-7.98927e-06
1.01251e-06
5.4705e-10
1.88678e-07
6.1647e-06
-5.892e-10
7.98707e-06
-7.55861e-10
-1.00934e-06
1.84346e-06
1.84329e-06
2.23352e-06
-1.70938e-06
-8.99518e-10
-1.51955e-10
-5.78719e-10
-2.23614e-06
9.13478e-07
-5.50911e-11
1.70997e-06
-1.31696e-10
9.08013e-07
-3.06446e-13
2.23106e-06
-1.70844e-06
-1.18202e-09
-2.61215e-10
-2.23115e-06
9.03294e-07
-2.64979e-11
1.70832e-06
9.02588e-07
-1.9865e-06
1.7413e-10
-7.93203e-10
-8.27927e-11
-1.31138e-10
-1.86455e-10
2.13153e-06
-2.13113e-06
-6.498e-11
4.13443e-06
-2.18811e-06
1.91606e-09
-2.13069e-06
3.86742e-06
-1.07625e-09
2.13076e-06
-9.03269e-07
3.86822e-06
-9.02427e-07
-1.97885e-06
-7.85541e-10
2.52264e-11
-9.27274e-07
9.2729e-07
-1.67021e-11
1.06415e-13
-2.24456e-06
1.19802e-06
3.39029e-11
-4.52702e-10
9.26403e-07
3.08783e-10
-9.26386e-07
6.71655e-07
1.33291e-11
6.73318e-07
2.12477e-11
-2.60384e-07
-4.24416e-12
1.35457e-08
-2.2382e-10
1.29656e-11
-3.32588e-11
1.84349e-06
1.84324e-06
-9.27267e-07
9.27289e-07
-2.1715e-11
-2.24392e-06
1.19781e-06
-4.65567e-10
9.26223e-07
3.51336e-10
-9.26201e-07
6.71331e-07
6.73303e-07
-2.60377e-07
1.35903e-08
-1.61414e-10
-2.26863e-06
-9.584e-07
-3.0466e-10
1.52085e-06
-3.41445e-11
1.62156e-06
1.50912e-06
-4.82666e-11
4.35116e-10
2.26837e-06
-3.09374e-10
9.58405e-07
5.50891e-07
-2.36282e-11
5.50461e-07
-5.30713e-11
1.5214e-06
9.85287e-07
-5.5049e-07
-6.99098e-11
-3.75163e-11
1.61159e-10
-9.8625e-07
-4.57355e-12
5.50895e-07
6.27531e-11
-3.35717e-11
-2.26829e-06
-9.58001e-07
-3.36794e-10
1.52031e-06
1.6214e-06
1.50847e-06
-9.92887e-07
4.58447e-10
2.26781e-06
-2.58307e-10
9.57656e-07
5.5035e-07
5.50154e-07
1.52051e-06
9.84954e-07
-5.50146e-07
-9.68131e-11
9.59711e-11
-9.85869e-07
2.51695e-11
5.50325e-07
1.25004e-06
-1.1411e-06
1.55577e-10
-1.11555e-10
3.59762e-13
1.35922e-08
-3.63536e-08
-4.37295e-08
4.41453e-11
2.64394e-12
4.54841e-08
2.05958e-08
1.91812e-12
5.11086e-12
3.63865e-08
5.35276e-11
4.34915e-08
3.34852e-12
3.73434e-12
-2.1679e-07
-1.31034e-07
-1.90721e-10
3.51913e-08
2.31245e-07
1.21791e-07
-4.61358e-11
2.17296e-07
6.92957e-11
1.31037e-07
-9.27825e-09
-9.16694e-09
3.51127e-08
-3.63471e-08
-4.37407e-08
5.77804e-11
4.55161e-08
2.05977e-08
-6.60899e-08
-5.41025e-12
3.63489e-08
4.85581e-11
4.35824e-08
-1.24353e-07
-1.23988e-07
1.53144e-06
9.87113e-07
3.0383e-10
-9.27562e-07
-2.83776e-12
-1.63652e-06
-9.87115e-07
-1.08445e-11
1.50951e-10
-1.53101e-06
1.11409e-12
-9.86459e-07
-7.90417e-12
-1.11762e-12
-9.2743e-07
-1.50143e-06
-1.07501e-06
-3.77188e-10
9.27555e-07
-3.67349e-13
1.74194e-06
1.07503e-06
3.15267e-12
2.25416e-11
1.5008e-06
-1.24597e-11
1.07446e-06
1.59655e-12
-1.49394e-13
9.27436e-07
-6.17651e-12
-3.7789e-13
1.53134e-06
9.8709e-07
2.99985e-10
-9.27498e-07
-1.63627e-06
-9.87092e-07
9.92793e-07
1.56642e-10
-1.53087e-06
3.02774e-12
-9.8643e-07
-9.27313e-07
-1.50144e-06
-1.07499e-06
-3.71305e-10
9.27492e-07
1.7417e-06
1.07501e-06
-1.33244e-06
1.48367e-11
1.50084e-06
-1.49653e-11
1.07443e-06
9.2732e-07
-6.11196e-12
1.05827e-08
-1.02179e-07
-2.16889e-11
-3.37225e-12
3.45479e-08
-9.30424e-09
-6.5657e-13
5.81903e-13
-1.06002e-08
-3.69163e-12
1.02209e-07
1.92205e-12
-2.3452e-12
1.18365e-07
1.09193e-08
-2.07313e-11
-1.13015e-07
-9.86575e-09
-5.62427e-08
-4.72446e-11
-1.18316e-07
-2.12567e-12
-1.09488e-08
-4.52886e-08
-4.53226e-08
-1.13032e-07
1.06154e-08
-1.02127e-07
-1.31997e-11
3.47069e-08
-9.45247e-09
-2.5258e-08
-1.54678e-12
-1.05956e-08
-6.64718e-12
1.0213e-07
-9.36333e-08
-9.368e-08
2.24302e-06
9.78859e-07
2.01641e-10
-1.68994e-06
1.32523e-11
-1.44085e-06
-1.57008e-06
7.30139e-12
1.64259e-10
-2.24253e-06
-1.56687e-10
-9.79416e-07
-1.13323e-06
6.30394e-12
-1.1337e-06
2.50169e-11
-1.68976e-06
6.7491e-07
-1.27295e-06
-2.08861e-10
2.43906e-11
4.58412e-07
-4.58468e-07
-8.47054e-12
4.18179e-10
-6.75531e-07
-6.26985e-10
1.27496e-06
-9.05017e-07
4.11295e-11
-4.9002e-11
-9.05124e-07
2.24283e-06
9.78634e-07
2.35027e-10
-1.68957e-06