/*--------------------------------*- C++ -*----------------------------------*\
  =========                 |
  \\      /  F ield         | OpenFOAM: The Open Source CFD Toolbox
   \\    /   O peration     | Website:  https://openfoam.org
    \\  /    A nd           | Version:  7
     \\/     M anipulation  |
\*---------------------------------------------------------------------------*/
FoamFile
{
    version     2.0;
    format      ascii;
    class       volVectorField;
    location    "1";
    object      U;
}
// * * * * * * * * * * * * * * * * * * * * * * * * * * * * * * * * * * * * * //

dimensions      [0 1 -1 0 0 0 0];

internalField   nonuniform List<vector> 
1161
(
(0.425614 -0.0286691 0)
(0.491965 -0.0251587 0)
(0.560312 -0.0259948 1.27584e-22)
(0.637062 -0.0326875 0)
(0.737509 -0.043542 1.6634e-22)
(0.868985 -0.0561243 6.64682e-22)
(1.03242 -0.0674973 -5.45257e-22)
(1.22172 -0.0742334 0)
(1.42433 -0.073053 0)
(1.62317 -0.0594639 0)
(1.7743 -0.0199926 2.43167e-21)
(1.8147 0.0322365 -5.7463e-21)
(1.73481 0.0662465 0)
(1.58627 0.0699453 0)
(1.4321 0.0512931 0)
(1.31692 0.018876 0)
(1.27204 -0.0301862 -3.9575e-21)
(1.35397 -0.118075 -6.07212e-23)
(1.68008 -0.310838 0)
(1.79871 -0.679504 0)
(1.15396 -0.105877 -1.61314e-23)
(1.25432 -0.1083 -8.8976e-23)
(1.38046 -0.1259 -3.25824e-22)
(1.53396 -0.161531 0)
(1.73512 -0.211335 -3.27498e-22)
(1.99477 -0.267921 5.05022e-22)
(2.31367 -0.320642 0)
(2.6811 -0.356667 0)
(3.07676 -0.36392 0)
(3.47972 -0.326887 -3.54666e-21)
(3.81816 -0.18196 -6.92821e-21)
(3.96887 0.0351567 1.29941e-21)
(3.89368 0.206455 6.31831e-21)
(3.66796 0.270914 -6.31818e-21)
(3.3965 0.244798 0)
(3.15679 0.157921 1.48166e-20)
(2.99415 0.018608 0)
(2.93914 -0.198266 -3.89373e-21)
(3.02072 -0.587885 -2.22411e-21)
(2.99249 -1.20358 2.20529e-21)
(1.67142 -0.201008 3.67904e-23)
(1.7688 -0.223506 -2.52105e-22)
(1.90288 -0.277665 2.2948e-22)
(2.0748 -0.363687 0)
(2.30519 -0.475795 -7.36438e-22)
(2.60545 -0.60133 -7.59151e-22)
(2.97544 -0.719584 0)
(3.40098 -0.806522 -8.87784e-21)
(3.8619 -0.843751 2.88485e-20)
(4.34451 -0.805673 -2.44982e-20)
(4.76779 -0.504139 9.07982e-21)
(4.96031 -0.0229163 -1.8417e-20)
(4.85994 0.359523 -6.03431e-21)
(4.59308 0.531383 -2.7762e-20)
(4.28993 0.529583 2.84593e-20)
(4.01524 0.407756 -1.48207e-20)
(3.79419 0.197625 4.76868e-22)
(3.6264 -0.095943 -7.43811e-21)
(3.48211 -0.490474 -7.85418e-21)
(3.28658 -0.863602 1.94673e-21)
(1.97161 -0.284904 4.22649e-23)
(2.04908 -0.327906 -3.33646e-23)
(2.16336 -0.422543 -7.14159e-23)
(2.31858 -0.564618 1.71e-21)
(2.53447 -0.745119 -5.59164e-22)
(2.82126 -0.944707 2.86314e-21)
(3.17387 -1.12922 -6.79685e-22)
(3.56633 -1.26537 4.06767e-21)
(3.9798 -1.35181 -1.1187e-20)
(4.41422 -1.37009 -1.15821e-06)
(4.80053 -0.848548 -7.59416e-07)
(4.89944 0.00282551 3.206e-06)
(4.63199 0.587507 2.21968e-06)
(4.32504 0.813651 8.63137e-20)
(4.07659 0.807577 -2.84719e-20)
(3.88296 0.650939 2.8998e-20)
(3.72743 0.397777 2.96701e-20)
(3.59399 0.0835536 7.59499e-21)
(3.44255 -0.251872 -3.55541e-21)
(3.25923 -0.44951 1.83534e-21)
(2.08856 -0.344206 -7.14784e-24)
(2.13651 -0.405314 1.51068e-22)
(2.21499 -0.537772 -4.735e-22)
(2.33254 -0.733817 -1.13482e-21)
(2.50557 -0.979944 1.60207e-21)
(2.73938 -1.24523 -2.54362e-21)
(3.01268 -1.46849 5.79914e-22)
(3.25677 -1.60035 -3.39757e-21)
(3.43403 -1.68469 -9.76586e-07)
(3.56268 -1.69298 -1.19074e-05)
(3.85054 -1.2841 0.244637)
(3.66669 0.030371 0.310925)
(2.8213 0.949277 -2.12982e-06)
(2.8648 1.02161 2.3033e-06)
(2.93023 0.934634 -2.9558e-20)
(2.99153 0.737908 -4.35199e-20)
(3.04337 0.466438 1.44556e-20)
(3.08591 0.160357 -2.19053e-20)
(3.10754 -0.118086 0)
(3.08032 -0.207335 -1.87634e-21)
(2.07771 -0.3713 -8.01002e-24)
(2.0898 -0.447346 0)
(2.12161 -0.611124 6.48501e-22)
(2.18555 -0.852912 -1.13309e-21)
(2.29126 -1.15337 -1.02098e-21)
(2.43625 -1.46066 4.82234e-21)
(2.57103 -1.65572 2.68143e-07)
(2.53427 -1.65211 -7.00311e-07)
(2.24226 -1.47939 6.09329e-07)
(1.93695 -1.32454 0.137493)
(1.53382 -0.887526 0.191997)
(0.803941 0.562437 0.372654)
(1.23192 0.706687 -1.15107e-06)
(1.60315 0.692807 6.05192e-20)
(1.91738 0.544185 3.62985e-21)
(2.18764 0.301949 0)
(2.44045 0.0163791 1.10073e-20)
(2.69463 -0.230789 -7.31468e-21)
(2.8634 -0.251684 1.87582e-21)
(2.00493 -0.360897 8.00434e-24)
(1.97654 -0.446762 1.73071e-23)
(1.95269 -0.630358 4.23823e-23)
(1.94646 -0.901161 2.05556e-22)
(1.95713 -1.23232 1.00476e-21)
(1.97913 -1.53989 -3.98417e-21)
(1.93405 -1.59984 -2.69198e-07)
(1.80008 -1.4406 0.0564102)
(1.24228 -0.968549 0.0738601)
(0.461834 -0.364303 0.0934986)
(0.021894 0.0291364 0.324624)
(0.363387 0.24808 1.14484e-06)
(0.749577 0.288096 -2.3332e-22)
(1.14183 0.178044 -1.80609e-20)
(1.53069 -0.0464466 1.26291e-20)
(1.93358 -0.333536 -3.65215e-21)
(2.37213 -0.591264 1.28367e-20)
(2.6933 -0.572857 -2.77095e-21)
(1.93769 -0.310808 1.63572e-23)
(1.86623 -0.397719 -3.28578e-23)
(1.77963 -0.582627 -2.76315e-22)
(1.68624 -0.855137 3.42354e-22)
(1.57249 -1.17996 1.87568e-23)
(1.44455 -1.43549 7.83077e-08)
(1.35996 -1.40931 0.0152745)
(0.918019 -0.883601 0.0305672)
(0.14543 -0.121512 0.0247424)
(-0.00336465 -0.023517 0.231459)
(0.0899047 -0.0369723 -4.81234e-06)
(0.404285 -0.080511 -3.83038e-21)
(0.792047 -0.232892 0)
(1.22314 -0.486647 8.96606e-21)
(1.69641 -0.808338 0)
(2.22281 -1.1096 -1.82475e-21)
(2.61564 -1.06942 9.31091e-22)
(1.93984 -0.222318 4.56524e-23)
(1.82704 -0.297012 1.65594e-23)
(1.67483 -0.456837 3.68577e-23)
(1.48246 -0.694869 -1.6858e-21)
(1.22735 -0.979421 -1.36876e-07)
(0.912911 -1.16863 -2.60392e-08)
(0.717268 -1.01615 -0.0121926)
(0.183426 -0.252993 0.00795091)
(-7.63491e-06 -0.00864383 0.220085)
(0.143613 -0.239509 -7.00144e-06)
(0.452059 -0.413016 0)
(0.840635 -0.645895 2.90308e-20)
(1.27638 -0.950356 -2.18006e-20)
(1.7489 -1.31505 1.41745e-20)
(2.25874 -1.66427 3.67476e-21)
(2.63815 -1.60609 -5.52364e-21)
(2.07056 -0.100515 7.21576e-23)
(1.92511 -0.146108 -1.28448e-22)
(1.71158 -0.246856 -3.68226e-23)
(1.40939 -0.402702 0)
(0.993161 -0.601478 2.27822e-08)
(0.648064 -0.809607 -0.0384372)
(0.322871 -0.600942 -0.0365046)
(0.0255319 -0.0376752 0.280335)
(0.474757 -0.508814 -1.2219e-06)
(0.83423 -0.768485 3.08281e-20)
(1.2335 -1.05605 0)
(1.64372 -1.38885 -1.43375e-20)
(2.05297 -1.76966 -1.41572e-20)
(2.45399 -2.13948 3.55615e-21)
(2.74549 -2.05597 -7.94605e-23)
(2.38389 0.0442567 9.10743e-23)
(2.22389 0.0456235 -2.45699e-22)
(1.97048 0.043045 -8.10114e-22)
(1.57865 0.0294203 6.65998e-21)
(0.994956 -0.0315826 7.2766e-07)
(0.443622 -0.31504 -0.055277)
(0.0924268 -0.230081 -0.0541971)
(0.7695 -0.579218 9.88938e-06)
(1.16289 -0.877023 2.3695e-06)
(1.55373 -1.15567 -7.73044e-21)
(1.92615 -1.44202 0)
(2.26288 -1.75392 -1.40281e-20)
(2.54949 -2.10106 0)
(2.76864 -2.4426 -1.67991e-21)
(2.91306 -2.32268 -1.77789e-21)
(2.92306 0.192769 -4.06407e-23)
(2.77566 0.251678 4.68661e-22)
(2.52573 0.381027 -1.55278e-21)
(2.10854 0.591469 2.08757e-21)
(1.40652 0.816248 2.82981e-08)
(0.455811 0.429011 -0.0664065)
(0.0103807 -0.0153581 -0.0479692)
(0.344483 -0.171998 0.370007)
(1.37308 -0.730175 2.65014e-06)
(1.81411 -1.02098 2.54739e-06)
(2.21444 -1.27965 3.79953e-20)
(2.56361 -1.51833 7.3854e-21)
(2.84927 -1.75067 -7.38893e-21)
(3.05619 -1.99108 1.40215e-20)
(3.16867 -2.25183 -4.80501e-21)
(3.15586 -2.51004 -1.61502e-21)
(3.11259 -2.34381 -2.79546e-21)
(3.6937 0.316659 0)
(3.59267 0.419572 0)
(3.42337 0.66136 1.31637e-22)
(3.15251 1.10332 5.84517e-22)
(2.7052 1.7794 -4.52142e-08)
(1.21719 1.79972 -0.0357126)
(0.171074 -0.104443 0.334291)
(1.14664 -0.524943 0.40076)
(2.36277 -1.01318 -5.38144e-06)
(2.8405 -1.24392 -2.58406e-06)
(3.23105 -1.44646 -4.07584e-20)
(3.53837 -1.6242 1.96297e-20)
(3.76181 -1.78027 0)
(3.89404 -1.91984 -6.90878e-21)
(3.92042 -2.05123 0)
(3.82517 -2.18499 6.41802e-21)
(3.56008 -2.31272 5.53705e-21)
(3.31357 -2.09136 2.79431e-21)
(4.61597 0.392375 0)
(4.57822 0.504457 1.67569e-23)
(4.54202 0.772385 -3.92171e-22)
(4.55325 1.25672 1.73832e-20)
(4.79295 2.00773 3.7408e-07)
(4.37367 2.99079 0.131209)
(3.71037 1.40834 0.254685)
(3.03495 -0.662501 0.477641)
(4.00591 -1.0431 1.50924e-06)
(4.25507 -1.28205 1.77902e-20)
(4.48293 -1.44566 -8.82492e-20)
(4.69549 -1.58695 1.61398e-20)
(4.85664 -1.70553 3.09616e-20)
(4.95037 -1.79802 -1.57047e-20)
(4.96682 -1.86161 0)
(4.89379 -1.89636 2.30036e-22)
(4.71334 -1.90505 -3.05005e-21)
(4.40873 -1.89356 6.01062e-21)
(3.91352 -1.86173 -1.51562e-21)
(3.48414 -1.57864 -1.22364e-21)
(5.51167 0.412415 -5.40655e-22)
(5.5258 0.504213 4.81062e-22)
(5.5905 0.721358 2.60657e-22)
(5.76663 1.07295 0)
(6.14232 1.5771 -8.30076e-21)
(6.81481 1.89876 -1.82438e-06)
(7.37705 0.948138 4.44262e-06)
(7.36237 -0.103506 -2.64856e-06)
(6.94077 -0.746373 2.65073e-06)
(6.65346 -1.1403 0)
(6.49119 -1.39914 -1.59453e-20)
(6.37569 -1.5682 -1.5362e-20)
(6.2532 -1.67118 -3.031e-20)
(6.0967 -1.71886 7.42217e-21)
(5.88896 -1.71581 0)
(5.61419 -1.66386 6.67954e-21)
(5.25259 -1.56324 -5.89714e-21)
(4.78683 -1.4138 1.50471e-22)
(4.13814 -1.2154 -2.55592e-21)
(3.59097 -0.868142 0)
(6.13571 0.382975 0)
(6.18089 0.44484 -3.28671e-21)
(6.29018 0.58668 3.29303e-21)
(6.49111 0.787882 7.63143e-21)
(6.81594 0.996867 2.83753e-20)
(7.33482 1.13492 -2.84687e-20)
(7.86453 0.688772 2.63047e-20)
(8.06166 0.0121231 5.6432e-21)
(7.92986 -0.533667 1.10824e-20)
(7.69252 -0.915123 3.57523e-21)
(7.4449 -1.17455 0)
(7.1868 -1.3395 1.51924e-20)
(6.90199 -1.42476 0)
(6.58271 -1.4397 0)
(6.22473 -1.38984 -6.64796e-21)
(5.82256 -1.27593 6.86978e-21)
(5.36456 -1.09339 6.67675e-21)
(4.83805 -0.831458 2.59717e-23)
(4.16543 -0.479211 -1.36839e-21)
(3.60637 -0.0683228 1.18691e-21)
(6.2325 0.316557 0)
(6.29566 0.353223 0)
(6.42213 0.432387 2.61825e-21)
(6.61159 0.532397 -1.97042e-21)
(6.87311 0.606164 -9.71497e-21)
(7.23828 0.626785 6.13916e-21)
(7.61763 0.38049 8.36807e-22)
(7.81382 -0.0378861 -1.10302e-20)
(7.77919 -0.429311 -7.02366e-21)
(7.59652 -0.721076 -1.72461e-20)
(7.33546 -0.917531 2.41459e-20)
(7.02014 -1.03321 -1.38342e-20)
(6.65933 -1.07741 1.3798e-20)
(6.26347 -1.05652 -2.06494e-20)
(5.84413 -0.973766 -6.68839e-21)
(5.4102 -0.825761 -6.58995e-21)
(4.96339 -0.598776 3.00077e-22)
(4.50071 -0.264222 9.11858e-21)
(3.96065 0.204399 4.08198e-21)
(3.51425 0.681624 -1.34386e-21)
(5.58936 0.225934 9.9178e-22)
(5.66704 0.244618 -2.97113e-21)
(5.80211 0.280318 -5.57013e-22)
(5.97602 0.319959 1.37536e-20)
(6.18689 0.335955 -4.16036e-21)
(6.44022 0.309039 -1.50569e-20)
(6.68326 0.15748 1.91304e-20)
(6.80666 -0.0893225 0)
(6.76266 -0.331735 -1.21469e-20)
(6.57858 -0.512115 -1.42506e-21)
(6.29872 -0.623934 1.61434e-20)
(5.95445 -0.676512 0)
(5.56917 -0.678179 6.81599e-21)
(5.16572 -0.634391 6.87755e-21)
(4.76651 -0.546318 -1.71226e-20)
(4.39183 -0.406314 1.35451e-20)
(4.05761 -0.191299 -6.58512e-21)
(3.77038 0.144583 -3.19754e-21)
(3.51105 0.667411 1.2739e-22)
(3.29827 1.24332 1.58281e-21)
(4.0711 0.124377 0)
(4.16078 0.128224 2.43044e-21)
(4.2924 0.134343 -2.07922e-21)
(4.43957 0.140086 0)
(4.5988 0.134077 -8.26777e-21)
(4.7648 0.105502 -3.87689e-21)
(4.89957 0.0271884 3.87501e-21)
(4.9397 -0.0884287 0)
(4.85404 -0.196758 0)
(4.65659 -0.269017 6.98615e-21)
(4.38195 -0.302931 -6.21431e-21)
(4.06363 -0.306811 -1.67416e-21)
(3.72934 -0.287982 -1.7169e-21)
(3.40333 -0.250334 -8.67394e-21)
(3.10801 -0.193086 6.88809e-21)
(2.86598 -0.107065 -2.45449e-23)
(2.70209 0.0320743 5.28637e-21)
(2.65681 0.276726 -3.54794e-21)
(2.78567 0.743273 -2.65626e-21)
(2.87348 1.46429 -1.30682e-22)
(1.63839 0.0358424 2.1892e-22)
(1.71137 0.0337275 -5.49647e-22)
(1.7935 0.0307267 0)
(1.87132 0.0281102 2.23774e-21)
(1.94726 0.0231561 -2.55795e-21)
(2.0165 0.0126073 2.93629e-21)
(2.05771 -0.00870307 0)
(2.04192 -0.0360232 1.26615e-21)
(1.96001 -0.0577898 -1.26534e-21)
(1.82687 -0.0679083 0)
(1.6662 -0.0678813 0)
(1.49835 -0.0616551 -1.69314e-21)
(1.33742 -0.0519069 4.97046e-21)
(1.19369 -0.0394776 5.10366e-21)
(1.07645 -0.0231212 -3.41846e-21)
(0.997925 0.00203452 0)
(0.981985 0.0481516 3.46473e-21)
(1.09624 0.144368 -1.74501e-21)
(1.48233 0.358514 -5.14706e-22)
(1.69876 0.754639 1.53098e-21)
(3.81817 -0.650261 0.278615)
(2.91257 -1.20977 0.206732)
(1.68221 -0.219088 0.289267)
(3.8505 -1.28419 -0.244651)
(3.81816 -0.649271 -0.278491)
(2.91241 -1.20963 -0.206613)
(1.68037 -0.215146 -0.287267)
(3.47016 0.540277 0.344651)
(1.48863 0.0779212 0.291151)
(2.1538 0.656032 0.374285)
(3.66629 0.0312969 -0.310863)
(3.4696 0.540861 -0.344649)
(1.48555 0.0794081 -0.291658)
(2.15299 0.65624 -0.37431)
(1.61558 -1.09782 0.143792)
(1.00908 -0.736923 0.0954538)
(1.93615 -1.32487 -0.137504)
(1.6144 -1.09876 -0.144016)
(1.00844 -0.736796 -0.0954738)
(0.574116 -0.10639 0.0858723)
(1.53512 -0.888606 -0.191718)
(0.575935 -0.105167 -0.0856251)
(0.789908 0.452333 0.416415)
(0.0398422 0.036609 0.238126)
(0.789684 0.452204 -0.416505)
(0.0400456 0.0367472 -0.236864)
(1.08862 0.675602 0.374953)
(0.268872 0.250161 0.344027)
(0.548105 0.408092 0.362966)
(0.803971 0.562463 -0.372603)
(1.08862 0.675645 -0.374954)
(0.269134 0.250318 -0.34369)
(0.54822 0.408178 -0.362843)
(0.765225 -0.567626 0.0807605)
(0.410065 -0.364942 0.048304)
(1.24228 -0.968612 -0.073851)
(0.764989 -0.567142 -0.0807436)
(0.409619 -0.364901 -0.0482668)
(0.461599 -0.364127 -0.0934891)
(0.00160688 -0.000953 0.088705)
(0.00167088 -0.000894309 -0.0881094)
(0.18367 0.14758 0.357897)
(0.00086383 -0.020725 0.248884)
(0.0600378 0.0340379 0.358153)
(0.0219012 0.0290151 -0.324234)
(0.18367 0.14758 -0.357861)
(0.000859484 -0.0207397 -0.249071)
(0.0600358 0.0340383 -0.358078)
(0.394734 -0.339005 0.0563982)
(0.343698 -0.402423 0.00505913)
(0.917948 -0.883526 -0.0305654)
(0.394636 -0.33896 -0.0563896)
(0.343666 -0.402332 -0.00506483)
(0.145333 -0.12148 -0.0247399)
(-0.00992364 -0.0474022 0.343744)
(-0.0013251 -0.0105627 0.22059)
(-0.0128055 -0.0557274 0.338687)
(-0.00337654 -0.0235341 -0.231513)
(-0.00992066 -0.0474025 -0.343516)
(-0.00131148 -0.0105974 -0.220516)
(-0.0127836 -0.0557466 -0.338364)
(0.421773 -0.574196 0.00804556)
(0.451559 -0.772172 -0.0258641)
(0.0426909 -0.0955588 -0.0102874)
(0.717334 -1.01611 0.0121911)
(0.421768 -0.573922 -0.008062)
(0.451487 -0.772081 0.0258588)
(0.0426441 -0.0958016 0.0102969)
(0.183395 -0.25288 -0.0079562)
(0.00985631 -0.0918921 0.340964)
(0.00974496 -0.0165105 0.258351)
(0.0475424 -0.11883 0.348839)
(7.78942e-06 -0.00866366 -0.220025)
(0.00987328 -0.0919093 -0.340758)
(0.00975745 -0.0164438 -0.259094)
(0.0475707 -0.118801 -0.348925)
(0.142725 -0.313409 -0.0488511)
(0.322829 -0.60075 0.0365028)
(0.143019 -0.313036 0.0488011)
(0.0811738 -0.0848825 0.38544)
(0.0811792 -0.0848662 -0.385366)
(0.165493 -0.22316 0.356304)
(0.178321 -0.223535 0.34915)
(0.305336 -0.331214 0.370834)
(0.0255737 -0.0376855 -0.279717)
(0.165506 -0.223138 -0.356235)
(0.178348 -0.223533 -0.349078)
(0.305353 -0.331227 -0.370803)
(0.207448 -0.342844 -0.0562459)
(0.396158 -0.0484055 -0.0590871)
(0.127782 -0.148922 -0.0631537)
(0.443513 -0.315104 0.0552771)
(0.207335 -0.342839 0.0562397)
(0.395998 -0.0484663 0.0590802)
(0.127599 -0.148909 0.0631478)
(0.01513 -0.0527717 -0.0580187)
(0.0927799 -0.229944 0.054043)
(0.0150328 -0.052564 0.0580022)
(0.0720607 -0.0228804 0.167311)
(0.307362 -0.17373 0.388712)
(0.0719782 -0.0227972 -0.167037)
(0.307314 -0.17385 -0.388685)
(0.288269 -0.223418 0.373776)
(0.429385 -0.282608 0.363143)
(0.592268 -0.410769 0.385997)
(0.288241 -0.223398 -0.373769)
(0.42928 -0.282614 -0.363149)
(0.592222 -0.410765 -0.385999)
(0.0585359 0.0044432 -0.0717574)
(0.598648 0.937762 -0.0560223)
(0.0301637 0.208092 -0.075245)
(0.455668 0.428952 0.0663959)
(0.0583881 0.00448456 0.0717975)
(0.59851 0.937635 0.0560192)
(0.0301671 0.207934 0.07526)
(0.010363 -0.0152137 0.0474676)
(0.331922 -0.16199 0.399366)
(0.331992 -0.162123 -0.399204)
(0.121267 -0.086847 0.329713)
(0.467748 -0.239716 0.392907)
(0.656598 -0.32358 0.385076)
(0.121234 -0.0868106 -0.329742)
(0.467633 -0.239775 -0.392925)
(0.65653 -0.323558 -0.385066)
(0.66477 -0.344917 0.38748)
(0.911039 -0.470213 0.391871)
(1.14398 -0.586379 0.400845)
(0.344417 -0.171856 -0.369995)
(0.664737 -0.344923 -0.387482)
(0.910982 -0.470156 -0.391872)
(1.14395 -0.586367 -0.400845)
(0.0809391 0.376316 -0.0737294)
(2.41653 2.63362 0.0380185)
(1.44873 1.76218 0.130236)
(1.21681 1.79954 0.0357057)
(0.0809221 0.376039 0.0737652)
(2.4165 2.63362 -0.0380108)
(1.44951 1.7625 -0.130495)
(0.771259 -0.261881 0.536722)
(0.77163 -0.262053 -0.53659)
(0.071029 -0.0313997 0.1416)
(1.03717 -0.438527 0.514218)
(1.15414 -0.433387 0.46727)
(0.0709929 -0.0313827 -0.141613)
(1.03734 -0.438856 -0.513961)
(1.15392 -0.433389 -0.467278)
(0.796799 -0.358256 0.415836)
(1.42297 -0.595776 0.454906)
(1.72609 -0.681147 0.441498)
(0.171019 -0.104394 -0.334294)
(0.796745 -0.358174 -0.415817)
(1.42285 -0.595744 -0.454894)
(1.72604 -0.681121 -0.441494)
(2.9294 -0.260605 0.473466)
(5.87028 1.40751 0.354499)
(5.44578 0.323016 0.433923)
(3.70883 1.40741 -0.255379)
(2.92995 -0.260656 -0.473219)
(5.87026 1.40751 -0.354505)
(5.44589 0.32307 -0.433875)
(0.358456 -0.223997 0.000241331)
(1.53579 -0.888911 -0.000114402)
(1.15977 -0.603283 0.206868)
(0.825189 -0.550473 0.13952)
(1.15762 -0.601743 0.000514829)
(0.827735 -0.55223 -0.000530239)
(0.357614 -0.223881 0.0697734)
(0.453219 0.16618 0.165166)
(0.452562 0.166635 -2.33031e-05)
(1.5826 -1.22498 0.0630922)
(1.39816 -1.20477 0.0405569)
(1.04201 -0.865093 0.0493244)
(1.80002 -1.44061 -0.0564111)
(1.58252 -1.22502 -0.0630955)
(1.39806 -1.20474 -0.0405565)
(1.04184 -0.865085 -0.0493263)
(0.462461 -0.365038 5.8567e-05)
(0.212071 -0.133148 0.0533437)
(0.159832 -0.15321 0.0238571)
(0.212314 -0.133129 6.99531e-05)
(0.159882 -0.153649 -5.9453e-05)
(0.0546253 0.0397349 6.24412e-05)
(0.0218406 0.0292252 -4.86532e-05)
(0.094433 0.0814182 0.377516)
(0.0156059 0.0074754 0.306566)
(0.0945588 0.0816398 -9.86273e-06)
(0.0156812 0.00768 2.63856e-05)
(0.0546132 0.0396542 0.365717)
(1.19574 -1.21435 0.0230048)
(1.0578 -1.24993 0.00064008)
(0.812657 -0.958261 0.00892231)
(1.35997 -1.40926 -0.0152745)
(1.19572 -1.21427 -0.0230046)
(1.05784 -1.24988 -0.000639915)
(0.812658 -0.958137 -0.00892241)
(0.145231 -0.121367 3.85113e-05)
(-0.00860206 -0.0386892 1.22647e-05)
(-0.00337319 -0.0235419 -2.1942e-06)
(-0.00820534 -0.0430045 0.324886)
(-0.00275404 -0.0187548 0.224983)
(-0.00820229 -0.0430167 -7.07821e-06)
(-0.00273444 -0.0187526 2.56916e-06)
(-0.00861981 -0.0387323 0.314847)
(0.183342 -0.252916 0.000106297)
(0.0765983 -0.13197 -0.00514618)
(0.0765314 -0.132199 -3.67392e-05)
(0.00330263 -0.0340909 -3.80398e-06)
(8.61106e-06 -0.00864706 1.3184e-06)
(0.000227323 -0.0328284 0.307689)
(0.000806675 -0.0080296 0.22445)
(0.000247635 -0.0328496 7.56497e-06)
(0.000808693 -0.0080258 -2.81802e-06)
(0.00329221 -0.0340847 0.315278)
(0.468255 -0.772681 -0.0374671)
(0.527194 -0.614643 -0.0460926)
(0.325631 -0.568892 -0.0461838)
(0.64808 -0.809617 0.0384386)
(0.468296 -0.772631 0.0374635)
(0.527205 -0.61469 0.0460927)
(0.325747 -0.568873 0.0461755)
(0.116621 -0.275117 -5.64102e-05)
(0.323341 -0.601265 3.04595e-05)
(0.223504 -0.446766 -0.0274998)
(0.240251 -0.493702 -0.0444704)
(0.223645 -0.447064 0.00014308)
(0.240291 -0.493778 -6.18008e-05)
(0.116762 -0.275011 -0.0418932)
(0.0931106 -0.133962 1.93937e-05)
(0.025573 -0.0376898 1.23458e-05)
(0.0670279 -0.0920505 0.344496)
(0.0336257 -0.0670026 0.325948)
(0.0670468 -0.0919381 3.62262e-05)
(0.0335285 -0.0670201 -1.36604e-05)
(0.0930767 -0.13389 0.374121)
(0.00858569 -0.0405752 -5.25093e-05)
(0.0927191 -0.23015 5.21403e-05)
(0.0301888 -0.096311 -0.0324227)
(0.0404959 -0.14138 -0.0664983)
(0.0302802 -0.0962918 8.5188e-05)
(0.0401397 -0.141206 -0.00013291)
(0.00870282 -0.0405475 -0.0169609)
(0.173327 -0.140414 -6.9075e-05)
(0.0666934 -0.0604274 0.164884)
(0.109127 -0.0816203 0.271012)
(0.066717 -0.0605859 4.07882e-06)
(0.109027 -0.0815928 -2.67614e-05)
(0.173288 -0.140237 0.373207)
(0.0102923 -0.0151338 -3.22259e-06)
(0.00429546 0.0117706 -0.0209356)
(0.00421062 0.0118223 4.9373e-06)
(0.10679 -0.054721 1.1377e-05)
(0.0485406 -0.020935 0.122132)
(0.0486471 -0.0208711 -2.75422e-05)
(0.106817 -0.0549734 0.289361)
(0.0921854 -0.0316756 -3.97686e-05)
(0.0921525 -0.0318807 0.15199)
(0.609623 -0.313549 -0.000162426)
(0.171123 -0.1048 1.52526e-05)
(0.257752 -0.13306 0.437547)
(0.484008 -0.265865 0.441725)
(0.257644 -0.133312 3.98821e-05)
(0.483717 -0.266194 -8.05467e-05)
(0.609639 -0.31314 0.475767)
(1.4362 -0.662273 0.416628)
(2.04235 -0.85374 0.42003)
(2.27328 -0.957601 0.423704)
(1.1466 -0.524946 -0.400748)
(1.43618 -0.662287 -0.416611)
(2.04231 -0.853742 -0.420045)
(2.27325 -0.957617 -0.423709)
(4.2774 3.01104 0.245778)
(5.46996 2.73825 0.188852)
(5.73476 2.53721 0.259833)
(4.37379 2.99065 -0.131181)
(4.27752 3.01014 -0.245809)
(5.47 2.73814 -0.188849)
(5.73475 2.5368 -0.259851)
(4.17535 0.683106 -0.000166194)
(3.71961 1.40729 -0.00072492)
(2.84861 0.47019 0.507686)
(4.54949 1.60424 0.376014)
(2.85773 0.465072 0.00143166)
(4.55278 1.60494 -0.000140657)
(4.17174 0.688704 0.458655)
(3.03941 -0.789172 0.486063)
(5.07072 -0.391205 0.451826)
(4.82246 -0.75282 0.461266)
(3.0353 -0.662669 -0.477468)
(3.03949 -0.789279 -0.485989)
(5.07084 -0.391272 -0.451814)
(4.82253 -0.752901 -0.461265)
(2.91304 -0.750132 -0.000330111)
(1.68315 -0.216187 0.000565177)
(2.69161 -0.302132 0.301157)
(2.2178 -0.672125 0.209262)
(2.69202 -0.299912 0.000156509)
(2.21949 -0.672229 -0.000713951)
(2.91187 -0.749089 0.266325)
(2.91301 -0.749459 0.000323822)
(1.68185 -0.214433 -0.000101178)
(2.69074 -0.299202 -0.300906)
(2.21712 -0.671123 -0.209199)
(2.6915 -0.298586 8.83988e-05)
(2.21909 -0.671697 0.000564038)
(2.91185 -0.747883 -0.266281)
(2.41581 0.298682 -7.81863e-05)
(1.48604 0.0798731 0.000157948)
(2.49942 0.0726656 0.314341)
(1.45124 0.311768 0.350171)
(2.49823 0.0742919 -9.39519e-05)
(1.44933 0.312802 -0.000124814)
(2.41641 0.298182 0.359434)
(2.41512 0.2992 0.000206752)
(1.48461 0.0806332 -6.4485e-05)
(2.49775 0.0742676 -0.314439)
(1.44935 0.312323 -0.350363)
(2.49746 0.0750785 0.000220806)
(1.44846 0.313079 0.000221669)
(2.41492 0.299207 -0.359572)
(0.607318 -0.542249 0.000153418)
(0.42097 -0.330973 0.0817793)
(0.226856 -0.218001 0.0354449)
(0.419132 -0.331172 -0.000261791)
(0.226459 -0.21845 -3.21527e-05)
(0.609167 -0.541768 0.123377)
(0.606356 -0.542163 -0.000327354)
(0.418505 -0.331283 -0.0817732)
(0.226271 -0.217766 -0.0354438)
(0.417787 -0.331321 4.12582e-05)
(0.226164 -0.218318 9.77369e-06)
(0.607271 -0.541701 -0.123312)
(0.575891 -0.105349 0.000179142)
(1.02684 -0.362118 0.130753)
(1.02552 -0.36013 -0.000645727)
(0.18098 -0.11917 0.0380443)
(0.180206 -0.118778 -0.000196214)
(0.359048 -0.223388 8.4055e-05)
(1.53586 -0.889514 -0.000233815)
(1.15827 -0.59972 -0.207438)
(0.828782 -0.553793 -0.138706)
(1.15642 -0.599877 -0.000452784)
(0.82944 -0.553942 0.000128161)
(0.358802 -0.222703 -0.0697822)
(0.576594 -0.104977 2.92131e-05)
(1.02389 -0.359696 -0.131283)
(1.02354 -0.359306 0.00023306)
(0.178746 -0.118955 -0.0373348)
(0.178998 -0.118686 -0.000123934)
(0.149512 0.121128 8.09458e-06)
(0.789999 0.453014 -0.000206895)
(0.635352 0.344999 0.373672)
(0.267215 0.227342 0.407312)
(0.634804 0.345589 -0.000129924)
(0.267206 0.227825 8.30088e-05)
(0.149489 0.120684 0.180625)
(0.0398971 0.036886 2.32676e-05)
(0.0962723 0.0899165 0.315958)
(0.096351 0.0900069 -6.57045e-05)
(0.452651 0.166143 -0.165253)
(0.452309 0.166622 1.28345e-05)
(0.1495 0.121115 -9.79888e-06)
(0.789828 0.452963 0.000226605)
(0.635117 0.344917 -0.373805)
(0.267166 0.227163 -0.407406)
(0.634658 0.345545 0.000142219)
(0.267186 0.22779 -8.1198e-05)
(0.149449 0.120622 -0.180653)
(0.0399486 0.0369219 -6.59215e-05)
(0.0963383 0.0897676 -0.316113)
(0.0963791 0.0899955 5.62306e-05)
(0.601547 -0.525338 8.48272e-05)
(0.40935 -0.365003 -6.21692e-05)
(0.7529 -0.650606 0.0671805)
(0.259186 -0.234795 0.0293806)
(0.752815 -0.651098 0.000123529)
(0.258924 -0.235379 -0.000129685)
(0.601848 -0.524508 0.061413)
(0.379804 -0.290826 2.08843e-05)
(0.165703 -0.106838 0.0399645)
(0.103569 -0.0802861 0.0173621)
(0.165932 -0.106684 0.000127496)
(0.103685 -0.0804124 -2.65553e-05)
(0.379377 -0.290426 0.0665486)
(0.601522 -0.525518 -0.000121558)
(0.409119 -0.364974 2.64393e-05)
(0.752665 -0.650767 -0.0671476)
(0.258711 -0.23489 -0.0293272)
(0.752686 -0.651169 -0.000144545)
(0.258677 -0.235421 7.35102e-05)
(0.601841 -0.524899 -0.0613479)
(0.380121 -0.291174 -3.98312e-05)
(0.165891 -0.106679 -0.0400045)
(0.103363 -0.0804446 -0.017271)
(0.166002 -0.106581 -1.71807e-05)
(0.103571 -0.0804891 -3.77161e-05)
(0.380099 -0.291178 -0.0664613)
(0.462238 -0.364863 -7.75113e-05)
(0.211963 -0.133086 -0.0533465)
(0.159754 -0.153138 -0.0238573)
(0.212199 -0.133064 -8.07535e-05)
(0.159798 -0.153563 5.30575e-05)
(0.00157126 -0.000960868 -3.82179e-06)
(0.00158396 -0.000952716 -9.85411e-07)
(0.0187474 -0.00666562 -1.12134e-05)
(0.000862696 -0.0207608 8.71685e-06)
(0.00422308 -0.0116199 0.272652)
(0.00863713 -0.0273115 0.345015)
(0.00419991 -0.0116473 2.84035e-06)
(0.00861732 -0.0273495 1.72818e-05)
(0.0187698 -0.00655177 0.358807)
(0.0546306 0.0397365 -5.27903e-05)
(0.0218507 0.0292049 6.42114e-05)
(0.0944161 0.0813836 -0.377479)
(0.0155956 0.0074296 -0.306679)
(0.0945962 0.0816581 1.45159e-05)
(0.0156809 0.00767002 -1.62652e-05)
(0.0545843 0.0396252 -0.365771)
(0.0187482 -0.0066697 1.74734e-05)
(0.00086264 -0.0207657 -6.49669e-06)
(0.00421368 -0.0116552 -0.272739)
(0.00862944 -0.027322 -0.345084)
(0.00419808 -0.0116561 2.71498e-06)
(0.00861959 -0.027352 -1.32209e-05)
(0.0187502 -0.00658483 -0.358856)
(0.377124 -0.346851 -9.69843e-05)
(0.395009 -0.339333 0.000146731)
(0.633949 -0.562632 0.0476475)
(0.142352 -0.125916 0.0176476)
(0.634502 -0.5631 4.54363e-05)
(0.142627 -0.126196 3.13487e-07)
(0.376908 -0.346729 0.0271108)
(0.3566 -0.381739 0.000113486)
(0.343827 -0.402079 -0.000169171)
(0.567628 -0.626542 0.0198509)
(0.126341 -0.145426 0.00678164)
(0.568024 -0.626992 7.52594e-06)
(0.126598 -0.145642 -4.58784e-06)
(0.356522 -0.381509 0.0272895)
(0.17654 -0.174196 4.9255e-06)
(0.176662 -0.174323 0.0103178)
(0.377098 -0.346828 9.40722e-05)
(0.394949 -0.339299 -0.000154219)
(0.633849 -0.562576 -0.0476371)
(0.142341 -0.125912 -0.0176466)
(0.634436 -0.563057 -5.17514e-05)
(0.14262 -0.126192 -1.80254e-06)
(0.376863 -0.346693 -0.0271075)
(0.356585 -0.381717 -0.00011157)
(0.343805 -0.402034 0.000174465)
(0.567593 -0.62645 -0.0198547)
(0.126334 -0.145412 -0.00678306)
(0.567997 -0.626937 -4.03529e-06)
(0.126594 -0.145635 5.53925e-06)
(0.356497 -0.381471 -0.0272926)
(0.176528 -0.174183 -5.50157e-06)
(0.176638 -0.174299 -0.0103174)
(0.145183 -0.12135 -4.32067e-05)
(-0.00750807 -0.0351867 7.01304e-06)
(-0.00130621 -0.0105773 -3.95116e-06)
(-0.00205585 -0.0145236 0.222412)
(-0.00498788 -0.0308319 0.307299)
(-0.00203227 -0.0145532 4.35153e-07)
(-0.00495858 -0.030856 -1.64985e-06)
(-0.00753204 -0.0351537 0.310058)
(-0.00860803 -0.0387124 -5.70717e-06)
(-0.00337728 -0.0235563 9.6016e-06)
(-0.00822581 -0.0430036 -0.324856)
(-0.00276444 -0.0188067 -0.224876)
(-0.00820548 -0.0430206 1.67896e-05)
(-0.00274043 -0.0187872 1.89101e-06)
(-0.00863622 -0.0387632 -0.314679)
(-0.00751518 -0.0352128 -5.45714e-06)
(-0.00130766 -0.0105916 8.55232e-07)
(-0.00205871 -0.0145849 -0.222327)
(-0.00496402 -0.0308628 -0.3071)
(-0.00203982 -0.0145868 1.26821e-06)
(-0.00495636 -0.0308623 1.48969e-06)
(-0.00753564 -0.0351992 -0.309866)
(0.422023 -0.64836 -6.49356e-05)
(0.422184 -0.574567 0.000196932)
(0.566717 -0.776195 -0.00225262)
(0.226529 -0.367836 -0.0109631)
(0.567454 -0.776587 5.64756e-05)
(0.226431 -0.367741 -3.99598e-05)
(0.421772 -0.648269 -0.0143153)
(0.293531 -0.486178 7.57018e-05)
(0.0426823 -0.0958907 -4.72427e-05)
(0.13575 -0.232922 -0.00627463)
(0.15061 -0.305798 -0.0351613)
(0.135928 -0.232863 0.00015328)
(0.150298 -0.305636 -0.000178185)
(0.292991 -0.486029 -0.0181264)
(0.422099 -0.648327 8.39957e-05)
(0.422176 -0.574462 -0.000181339)
(0.566821 -0.776021 0.00224096)
(0.226523 -0.36754 0.0109236)
(0.567488 -0.776511 -4.448e-05)
(0.226434 -0.367651 7.7836e-05)
(0.421975 -0.648178 0.014291)
(0.293618 -0.486234 -4.51404e-05)
(0.0427218 -0.0960548 1.69581e-05)
(0.13582 -0.232966 0.00618337)
(0.150278 -0.305681 0.035203)
(0.135971 -0.232909 -8.98024e-05)
(0.150209 -0.305604 0.00012026)
(0.293216 -0.486154 0.0180858)
(0.183328 -0.252873 -0.0001019)
(0.0765656 -0.131862 0.00514056)
(0.0765185 -0.13216 4.31153e-05)
(0.0131247 -0.0418615 8.20592e-06)
(0.00971669 -0.0164515 -8.77053e-06)
(0.00362805 -0.00986421 0.240222)
(0.0275607 -0.0528171 0.341603)
(0.00362955 -0.0098688 3.45477e-06)
(0.0275622 -0.0526899 -2.69149e-05)
(0.0131265 -0.0418354 0.331748)
(0.00330942 -0.0341161 1.73425e-06)
(1.18571e-05 -0.00865612 -1.47068e-07)
(0.000250044 -0.0328725 -0.307547)
(0.000817484 -0.00804761 -0.224487)
(0.000248839 -0.032865 -1.56025e-06)
(0.000811909 -0.00803723 -5.24667e-07)
(0.00331803 -0.0341271 -0.315273)
(0.0131296 -0.0418605 -1.03932e-05)
(0.00971899 -0.0164374 -2.08083e-07)
(0.00363336 -0.00986858 -0.240433)
(0.027606 -0.0527456 -0.342197)
(0.00362955 -0.00986831 -4.72832e-06)
(0.0275737 -0.0526702 1.92624e-05)
(0.0131485 -0.0418357 -0.331882)
(0.0316504 -0.0857454 -2.96468e-05)
(0.0889635 -0.201172 -0.0218846)
(0.0886469 -0.200987 5.9041e-05)
(0.0317589 -0.0855952 -0.0141881)
(0.0835034 -0.183878 4.66189e-05)
(0.143042 -0.313198 7.97319e-06)
(0.186733 -0.381869 -0.0463044)
(0.0545261 -0.132528 -0.0342635)
(0.186984 -0.381588 1.05289e-05)
(0.054714 -0.13232 4.83995e-05)
(0.0834042 -0.184196 -0.036098)
(0.116576 -0.274993 5.36844e-05)
(0.323329 -0.60117 -2.9779e-05)
(0.223404 -0.446581 0.0274992)
(0.240252 -0.493437 0.0444677)
(0.223615 -0.44698 -0.000143108)
(0.240296 -0.493653 6.62124e-05)
(0.11665 -0.274723 0.0418935)
(0.0316279 -0.0857151 2.2871e-05)
(0.0888234 -0.201013 0.0218851)
(0.0886042 -0.200926 -6.224e-05)
(0.0317031 -0.0855142 0.0141888)
(0.0835113 -0.183719 -3.40599e-05)
(0.143182 -0.313012 2.9938e-05)
(0.186861 -0.381525 0.0462892)
(0.054639 -0.132068 0.0341876)
(0.187048 -0.381428 7.49917e-06)
(0.054769 -0.132097 4.58471e-06)
(0.0834141 -0.183841 0.0360902)
(0.00703328 -0.0170737 0.1031)
(0.00695926 -0.0170384 1.11348e-05)
(0.0814293 -0.0851769 4.76901e-06)
(0.0372208 -0.0535962 0.269673)