/*--------------------------------*- C++ -*----------------------------------*\
  =========                 |
  \\      /  F ield         | OpenFOAM: The Open Source CFD Toolbox
   \\    /   O peration     | Website:  https://openfoam.org
    \\  /    A nd           | Version:  7
     \\/     M anipulation  |
\*---------------------------------------------------------------------------*/
FoamFile
{
    version     2.0;
    format      ascii;
    class       volScalarField;
    location    "0.2";
    object      p;
}
// * * * * * * * * * * * * * * * * * * * * * * * * * * * * * * * * * * * * * //

dimensions      [0 2 -2 0 0 0 0];

internalField   nonuniform List<scalar> 
400
(
-0.00836508
-0.0251136
-0.0419216
-0.0587986
-0.0757634
-0.0928846
-0.11025
-0.12796
-0.146145
-0.164997
-0.18476
-0.205843
-0.228655
-0.254286
-0.283249
-0.318497
-0.362514
-0.415293
-0.508044
-0.693692
-0.0083497
-0.0250642
-0.0418566
-0.0587159
-0.0756464
-0.0927305
-0.110054
-0.127699
-0.145785
-0.1645
-0.184042
-0.204842
-0.227078
-0.252107
-0.279442
-0.312998
-0.353634
-0.400823
-0.489084
-0.512539
-0.00831302
-0.0249554
-0.0416797
-0.0584488
-0.0752577
-0.0921926
-0.109324
-0.126703
-0.144411
-0.162598
-0.181371
-0.201103
-0.221638
-0.244345
-0.26746
-0.295019
-0.322164
-0.348977
-0.375278
-0.378225
-0.00826343
-0.0248051
-0.0414197
-0.0580518
-0.0746845
-0.0913957
-0.108234
-0.125212
-0.142366
-0.159786
-0.177474
-0.195692
-0.214003
-0.233574
-0.251811
-0.272491
-0.288298
-0.301728
-0.308407
-0.295998
-0.00820773
-0.0246343
-0.0411186
-0.0575916
-0.0740228
-0.090475
-0.106972
-0.123492
-0.140021
-0.156588
-0.173104
-0.189714
-0.2058
-0.222328
-0.236372
-0.251567
-0.26025
-0.266383
-0.26602
-0.249641
-0.00815131
-0.0244605
-0.0408105
-0.0571202
-0.0733459
-0.0895336
-0.105684
-0.121742
-0.137652
-0.153387
-0.16879
-0.183917
-0.198044
-0.212019
-0.222854
-0.234187
-0.238578
-0.240857
-0.237755
-0.22159
-0.00809902
-0.0242991
-0.0405241
-0.0566819
-0.0727169
-0.0886601
-0.104492
-0.120129
-0.135482
-0.150483
-0.164926
-0.178808
-0.191358
-0.203364
-0.211887
-0.220629
-0.222428
-0.2227
-0.21857
-0.203533
-0.00805528
-0.0241642
-0.0402848
-0.0563156
-0.0721915
-0.0879315
-0.1035
-0.118793
-0.133695
-0.148109
-0.161799
-0.17473
-0.186112
-0.196715
-0.203664
-0.210741
-0.210997
-0.210254
-0.205768
-0.191776
-0.00802388
-0.0240678
-0.040114
-0.0560536
-0.0718152
-0.08741
-0.102791
-0.117841
-0.132428
-0.146437
-0.159613
-0.171905
-0.182522
-0.19223
-0.19821
-0.204304
-0.203696
-0.202462
-0.197871
-0.184597
-0.00800763
-0.0240188
-0.0400271
-0.0559187
-0.0716203
-0.0871391
-0.102423
-0.117347
-0.131772
-0.145574
-0.158491
-0.170465
-0.180702
-0.189975
-0.195495
-0.201135
-0.200139
-0.198705
-0.194092
-0.181174
-0.008008
-0.0240216
-0.0400318
-0.0559228
-0.071623
-0.0871412
-0.102425
-0.117348
-0.131772
-0.145574
-0.158492
-0.170466
-0.180703
-0.189975
-0.195495
-0.201135
-0.200137
-0.198702
-0.19409
-0.181172
-0.0080252
-0.0240765
-0.0401282
-0.0560657
-0.0718233
-0.087416
-0.102796
-0.117845
-0.13243
-0.146438
-0.159614
-0.171909
-0.182524
-0.192229
-0.198209
-0.204305
-0.203692
-0.202454
-0.197864
-0.184589
-0.00805768
-0.0241793
-0.0403086
-0.0563356
-0.0722045
-0.0879413
-0.103509
-0.118801
-0.1337
-0.148112
-0.161801
-0.174734
-0.186117
-0.196715
-0.203664
-0.210741
-0.210992
-0.210244
-0.205758
-0.191764
-0.00810266
-0.0243212
-0.0405576
-0.0567095
-0.0727347
-0.0886735
-0.104504
-0.120141
-0.135491
-0.150487
-0.164927
-0.178813
-0.191365
-0.203367
-0.211885
-0.220626
-0.222422
-0.222689
-0.218558
-0.203519
-0.00815617
-0.0244894
-0.0408532
-0.0571548
-0.073368
-0.0895504
-0.1057
-0.121757
-0.137663
-0.153393
-0.168792
-0.183923
-0.198053
-0.212021
-0.22285
-0.234182
-0.238572
-0.240847
-0.237742
-0.221573
-0.00821339
-0.0246682
-0.0411682
-0.0576316
-0.0740487
-0.0904948
-0.106991
-0.123509
-0.140035
-0.156595
-0.173107
-0.189721
-0.205808
-0.222327
-0.236365
-0.251563
-0.260245
-0.266371
-0.266004
-0.249621
-0.00826916
-0.0248408
-0.0414725
-0.0580951
-0.0747136
-0.0914183
-0.108255
-0.125232
-0.142382
-0.159796
-0.177478
-0.195697
-0.21401
-0.233573
-0.251806
-0.272488
-0.288292
-0.301714
-0.308389
-0.295976
-0.00831783
-0.0249883
-0.0417308
-0.0584932
-0.0752895
-0.0922179
-0.109347
-0.126724
-0.144429
-0.162609
-0.181375
-0.201108
-0.221645
-0.244346
-0.267456
-0.295013
-0.322155
-0.348963
-0.375261
-0.378202
-0.00835353
-0.0250906
-0.041901
-0.058759
-0.0756807
-0.0927583
-0.110078
-0.127721
-0.145804
-0.164512
-0.184047
-0.204846
-0.227084
-0.252109
-0.279438
-0.31299
-0.353624
-0.400811
-0.489061
-0.512513
-0.00837008
-0.025136
-0.0419591
-0.0588392
-0.0757994
-0.0929148
-0.110276
-0.127982
-0.146163
-0.165009
-0.184767
-0.205848
-0.22866
-0.254287
-0.283245
-0.318491
-0.362507
-0.415288
-0.50804
-0.693673
)
;

boundaryField
{
    movingWall
    {
        type            zeroGradient;
    }
    fixedWalls
    {
        type            zeroGradient;
    }
    frontAndBack
    {
        type            empty;
    }
    right
    {
        type            fixedValue;
        value           uniform 0;
    }
    left
    {
        type            zeroGradient;
    }
}


// ************************************************************************* //
