/*--------------------------------*- C++ -*----------------------------------*\
  =========                 |
  \\      /  F ield         | OpenFOAM: The Open Source CFD Toolbox
   \\    /   O peration     | Website:  https://openfoam.org
    \\  /    A nd           | Version:  7
     \\/     M anipulation  |
\*---------------------------------------------------------------------------*/
FoamFile
{
    version     2.0;
    format      ascii;
    class       surfaceScalarField;
    location    "0.2";
    object      phi;
}
// * * * * * * * * * * * * * * * * * * * * * * * * * * * * * * * * * * * * * //

dimensions      [0 3 -1 0 0 0 0];

internalField   nonuniform List<scalar> 
760
(
0.00204851
-9.45963e-08
0.00204879
-2.77402e-07
0.00204921
-4.24399e-07
0.00204994
-7.2537e-07
0.00205126
-1.32834e-06
0.00205338
-2.11846e-06
0.00205644
-3.06034e-06
0.00206073
-4.29053e-06
0.00206672
-5.99115e-06
0.00207506
-8.33648e-06
0.00208681
-1.17452e-05
0.00210319
-1.63874e-05
0.00212718
-2.39866e-05
0.00216058
-3.34007e-05
0.0022127
-5.21239e-05
0.00228955
-7.68422e-05
0.00239488
-0.000105329
0.00267083
-0.000275953
0.00267814
-7.31188e-06
-0.00232186
0.00440002
-2.1042e-07
0.00440028
-5.30295e-07
0.00440084
-9.8654e-07
0.00440185
-1.74164e-06
0.0044035
-2.97404e-06
0.00440601
-4.62771e-06
0.00440966
-6.70905e-06
0.00441481
-9.43887e-06
0.00442198
-1.31654e-05
0.00443193
-1.82829e-05
0.00444575
-2.5572e-05
0.00446496
-3.55983e-05
0.00449196
-5.09848e-05
0.00453005
-7.14871e-05
0.00458407
-0.000106141
0.00466601
-0.000158782
0.00477727
-0.000216596
0.00499528
-0.000493964
0.00520281
-0.000214841
-0.00211905
0.00522834
-3.09142e-07
0.00522854
-7.26829e-07
0.00522901
-1.46018e-06
0.00522987
-2.60091e-06
0.00523118
-4.28705e-06
0.0052331
-6.54582e-06
0.00523586
-9.46378e-06
0.00523973
-1.33108e-05
0.00524508
-1.85161e-05
0.00525242
-2.56261e-05
0.00526239
-3.55427e-05
0.00527603
-4.92317e-05
0.00529408
-6.90356e-05
0.00531901
-9.64194e-05
0.0053499
-0.00013703
0.00539062
-0.0001995
0.00543797
-0.000263954
0.00543123
-0.00048722
0.0055207
-0.000304307
-0.00159835
0.00543762
-3.82891e-07
0.00543774
-8.51253e-07
0.00543803
-1.75146e-06
0.00543856
-3.13004e-06
0.00543935
-5.07853e-06
0.00544048
-7.67241e-06
0.00544207
-1.10557e-05
0.00544428
-1.55199e-05
0.00544728
-2.1511e-05
0.00545128
-2.96279e-05
0.00545647
-4.0739e-05
0.00546319
-5.59449e-05
0.00547115
-7.69998e-05
0.0054807
-0.000105966
0.00548911
-0.000145441
0.0054931
-0.000203487
0.00548958
-0.000260435
0.00542456
-0.000422201
0.00541393
-0.000293677
-0.00118442
0.00547803
-4.16506e-07
0.00547807
-8.94916e-07
0.00547817
-1.84651e-06
0.00547833
-3.29925e-06
0.00547857
-5.31645e-06
0.00547889
-7.98803e-06
0.00547931
-1.14775e-05
0.00547986
-1.6069e-05
0.00548053
-2.21808e-05
0.00548128
-3.03803e-05
0.00548197
-4.1423e-05
0.00548233
-5.63099e-05
0.0054816
-7.62674e-05
0.00547872
-0.000103084
0.005471
-0.000137721
0.00545334
-0.000185836
0.00542446
-0.000231555
0.00534829
-0.000346024
0.00530259
-0.000247975
-0.000881833
0.00548325
-4.10116e-07
0.00548321
-8.56368e-07
0.00548312
-1.75451e-06
0.00548295
-3.12631e-06
0.00548265
-5.01963e-06
0.00548218
-7.51874e-06
0.00548148
-1.07772e-05
0.00548046
-1.50462e-05
0.00547896
-2.06844e-05
0.00547675
-2.81738e-05
0.00547345
-3.81194e-05
0.00546846
-5.13143e-05
0.00546076
-6.85732e-05
0.00544884
-9.11652e-05
0.00543043
-0.000119308
0.0054011
-0.000156504
0.00536042
-0.000190875
0.00528503
-0.000270641
0.00523205
-0.000194996
-0.000649779
0.00548258
-3.70166e-07
0.00548247
-7.43207e-07
0.00548221
-1.49621e-06
0.00548173
-2.64978e-06
0.00548095
-4.24162e-06
0.00547977
-6.33947e-06
0.00547806
-9.06794e-06
0.00547565
-1.26268e-05
0.00547226
-1.72957e-05
0.00546753
-2.34446e-05
0.00546092
-3.15164e-05
0.00545169
-4.20769e-05
0.00543875
-5.56333e-05
0.00542057
-7.29848e-05
0.00539531
-9.40537e-05
0.00535968
-0.000120873
0.0053138
-0.000144995
0.00524201
-0.000198853
0.00518995
-0.000142937
-0.000459824
0.00548128
-3.05568e-07
0.00548111
-5.69713e-07
0.00548072
-1.10257e-06
0.00547999
-1.92607e-06
0.00547882
-3.06965e-06
0.00547706
-4.57821e-06
0.00547453
-6.53638e-06
0.00547098
-9.08121e-06
0.00546609
-1.24023e-05
0.00545939
-1.67476e-05
0.00545028
-2.24051e-05
0.00543793
-2.973e-05
0.00542131
-3.9007e-05
0.00539901
-5.06884e-05
0.00536958
-6.46216e-05
0.00533062
-8.19141e-05
0.00528273
-9.71028e-05
0.00521441
-0.000130538
0.00516488
-9.34052e-05
-0.000294945
0.00548026
-2.24516e-07
0.00548005
-3.5416e-07
0.00547956
-6.13295e-07
0.00547866
-1.02743e-06
0.00547721
-1.61833e-06
0.00547503
-2.40492e-06
0.00547192
-3.42594e-06
0.00546759
-4.74945e-06
0.00546166
-6.47072e-06
0.00545363
-8.71472e-06
0.00544284
-1.16219e-05
0.00542848
-1.53633e-05
0.00540953
-2.006e-05
0.00538476
-2.59206e-05
0.00535298
-3.28381e-05
0.00531237
-4.13037e-05
0.00526384
-4.85788e-05
0.00519802
-6.47106e-05
0.00515061
-4.59998e-05
-0.000144333
0.00547972
-1.35072e-07
0.00547948
-1.17084e-07
0.00547895
-7.43556e-08
0.00547796
-3.80932e-08
0.00547636
-2.22998e-08
0.00547397
-1.82871e-08
0.00547056
-1.68294e-08
0.00546583
-1.42612e-08
0.00545937
-1.01302e-08
0.00545066
-7.29293e-09
0.00543905
-6.98657e-09
0.00542369
-8.74907e-09
0.00540363
1.45292e-09
0.00537771
3.19494e-09
0.00534487
-4.27827e-10
0.00530359
-2.12266e-08
0.00525493
8.00304e-08
0.00519037
-1.53942e-07
0.00514411
2.63583e-07
-2.25729e-07
0.00547973
-4.78928e-08
0.00547949
1.19919e-07
0.00547895
4.65093e-07
0.00547796
9.51682e-07
0.00547636
1.57413e-06
0.00547398
2.3686e-06
0.00547057
3.3923e-06
0.00546583
4.72033e-06
0.00545937
6.45011e-06
0.00545066
8.70153e-06
0.00543905
1.16104e-05
0.00542369
1.53454e-05
0.00540363
2.0059e-05
0.00537771
2.59263e-05
0.00534487
3.28419e-05
0.00530358
4.12629e-05
0.00525493
4.87332e-05
0.00519037
6.44089e-05
0.00514412
4.65171e-05
0.00014389
0.00548028
2.85005e-08
0.00548006
3.37688e-07
0.00547957
9.57033e-07
0.00547867
1.8519e-06
0.00547722
3.02623e-06
0.00547504
4.54281e-06
0.00547193
6.50357e-06
0.0054676
9.05232e-06
0.00546167
1.2382e-05
0.00545364
1.67362e-05
0.00544285
2.23961e-05
0.00542848
2.97113e-05
0.00540954
3.90015e-05
0.00538477
5.06955e-05
0.00535298
6.46325e-05
0.00531237
8.18747e-05
0.00526386
9.72439e-05
0.00519801
0.000130254
0.00515064
9.38944e-05
0.000294526
0.00548132
9.9e-08
0.00548114
5.19414e-07
0.00548074
1.35756e-06
0.00548002
2.57879e-06
0.00547884
4.19983e-06
0.00547708
6.30605e-06
0.00547454
9.03721e-06
0.005471
1.25992e-05
0.0054661
1.72755e-05
0.00545941
2.34334e-05
0.00545029
3.15103e-05
0.00543794
4.20615e-05
0.00542132
5.56267e-05
0.00539902
7.29918e-05
0.00536959
9.40667e-05
0.00533063
0.000120836
0.00528275
0.000145122
0.00521441
0.000198596
0.00516492
0.000143381
0.000459445
0.00548266
1.6349e-07
0.00548252
6.54126e-07
0.00548225
1.6291e-06
0.00548177
3.06079e-06
0.00548099
4.98072e-06
0.0054798
7.48881e-06
0.00547809
1.07505e-05
0.00547567
1.50216e-05
0.00547228
2.06656e-05
0.00546755
2.81643e-05
0.00546094
3.81172e-05
0.0054517
5.13051e-05
0.00543876
6.85664e-05
0.00542058
9.11673e-05
0.00539533
0.00011932
0.00535969
0.000156472
0.00531383
0.000190988
0.005242
0.00027042
0.00519001
0.000195379
0.000649451
0.00548337
2.19838e-07
0.00548329
7.31082e-07
0.00548318
1.74089e-06
0.005483
3.24104e-06
0.0054827
5.28228e-06
0.00548222
7.96419e-06
0.00548152
1.14577e-05
0.00548049
1.60503e-05
0.00547899
2.21654e-05
0.00547678
3.03726e-05
0.00547347
4.14235e-05
0.00546847
5.63059e-05
0.00546078
7.62591e-05
0.00544886
0.000103083
0.00543045
0.000137736
0.00540111
0.000185814
0.00536045
0.000231649
0.00528502
0.00034584
0.00523212
0.000248287
0.000881567
0.00547817
2.57685e-07
0.00547816
7.38308e-07
0.00547823
1.66766e-06
0.0054784
3.07784e-06
0.00547863
5.04943e-06
0.00547894
7.65661e-06
0.00547935
1.10446e-05
0.00547989
1.55077e-05
0.00548056
2.14986e-05
0.00548131
2.96223e-05
0.00548199
4.07439e-05
0.00548235
5.59483e-05
0.00548162
7.69923e-05
0.00547873
0.000105963
0.00547102
0.000145456
0.00545336
0.000203471
0.0054245
0.000260506
0.00534828
0.000422057
0.00530265
0.000293921
0.00118422
0.00543774
2.6107e-07
0.00543782
6.64856e-07
0.00543809
1.39141e-06
0.00543862
2.54799e-06
0.00543941
4.26036e-06
0.00544053
6.53804e-06
0.00544211
9.46171e-06
0.00544432
1.33049e-05
0.00544731
1.85063e-05
0.00545131
2.56239e-05
0.0054565
3.55555e-05
0.0054632
4.92416e-05
0.00547117
6.9025e-05
0.00548072
9.64134e-05
0.00548913
0.000137043
0.00549311
0.000199493
0.00548961
0.000264004
0.00542456
0.000487114
0.00541399
0.00030449
0.00159821
0.00522842
2.22735e-07
0.00522858
5.04719e-07
0.00522905
9.21455e-07
0.00522992
1.68279e-06
0.00523123
2.94892e-06
0.00523314
4.62764e-06
0.00523589
6.71489e-06
0.00523976
9.43726e-06
0.00524511
1.31564e-05
0.00525245
1.82837e-05
0.00526241
2.5592e-05
0.00527604
3.56099e-05
0.0052941
5.09696e-05
0.00531903
7.14823e-05
0.00534992
0.000106152
0.00539063
0.00015878
0.00543801
0.000216622
0.00543123
0.000493895
0.00552074
0.000214979
0.00211895
0.00440009
1.32911e-07
0.00440032
2.70185e-07
0.00440087
3.7261e-07
0.00440188
6.78327e-07
0.00440351
1.31289e-06
0.00440602
2.1244e-06
0.00440966
3.06841e-06
0.00441481
4.28872e-06
0.00442199
5.98176e-06
0.00443193
8.33826e-06
0.00444576
1.17645e-05
0.00446497
1.63959e-05
0.00449197
2.39731e-05
0.00453005
3.33981e-05
0.00458408
5.21273e-05
0.00466602
7.68394e-05
0.0047773
0.000105343
0.00499525
0.00027594
0.00520287
7.36544e-06
0.00232181
0.0020486
0.00204887
0.00204925
0.00204992
0.00205124
0.00205336
0.00205643
0.00206072
0.0020667
0.00207504
0.0020868
0.0021032
0.00212717
0.00216057
0.0022127
0.00228954
0.00239488
0.00267082
0.00267819
)
;

boundaryField
{
    movingWall
    {
        type            calculated;
        value           nonuniform 0();
    }
    fixedWalls
    {
        type            calculated;
        value           uniform 0;
    }
    frontAndBack
    {
        type            empty;
        value           nonuniform 0();
    }
    right
    {
        type            calculated;
        value           nonuniform List<scalar> 
20
(
-0.00204841
-0.00439991
-0.00522824
-0.00543754
-0.00547799
-0.00548326
-0.00548262
-0.00548135
-0.00548034
-0.00547981
-0.00547981
-0.00548036
-0.00548139
-0.00548272
-0.00548343
-0.00547821
-0.00543775
-0.00522839
-0.0044
-0.00204847
)
;
    }
    left
    {
        type            calculated;
        value           nonuniform List<scalar> 
20
(
0.005
0.005
0.005
0.005
0.005
0.005
0.005
0.005
0.005
0.005
0.005
0.005
0.005
0.005
0.005
0.005
0.005
0.005
0.005
0.005
)
;
    }
}


// ************************************************************************* //
