/*--------------------------------*- C++ -*----------------------------------*\
  =========                 |
  \\      /  F ield         | OpenFOAM: The Open Source CFD Toolbox
   \\    /   O peration     | Website:  https://openfoam.org
    \\  /    A nd           | Version:  7
     \\/     M anipulation  |
\*---------------------------------------------------------------------------*/
FoamFile
{
    version     2.0;
    format      ascii;
    class       volVectorField;
    location    "0.2";
    object      U;
}
// * * * * * * * * * * * * * * * * * * * * * * * * * * * * * * * * * * * * * //

dimensions      [0 1 -1 0 0 0 0];

internalField   nonuniform List<vector> 
400
(
(0.409707 -9.11793e-06 0)
(0.409706 -2.85111e-05 0)
(0.409795 -4.20069e-05 0)
(0.409915 -7.63388e-05 0)
(0.410101 -0.000146771 0)
(0.410439 -0.000233153 0)
(0.410957 -0.000332139 0)
(0.411684 -0.000462461 0)
(0.4127 -0.000644934 0)
(0.414111 -0.00089942 0)
(0.416106 -0.0012713 0)
(0.418836 -0.00178812 0)
(0.422951 -0.0026335 0)
(0.428187 -0.00371526 0)
(0.437741 -0.00590901 0)
(0.44744 -0.00858247 0)
(0.472675 -0.0134444 0)
(0.48962 -0.0295041 0)
(0.608301 -0.00555841 0)
(0.373951 -0.357704 0)
(0.880012 -2.91117e-05 0)
(0.879978 -8.17265e-05 0)
(0.880096 -0.000139177 0)
(0.880286 -0.000239012 0)
(0.880517 -0.000424671 0)
(0.880912 -0.000675562 0)
(0.881532 -0.00098242 0)
(0.882404 -0.00138114 0)
(0.883624 -0.00192767 0)
(0.885294 -0.00267911 0)
(0.887708 -0.00376148 0)
(0.890749 -0.00523722 0)
(0.895965 -0.00759238 0)
(0.900504 -0.0105815 0)
(0.914385 -0.0161265 0)
(0.916696 -0.0241348 0)
(0.956656 -0.0316773 0)
(0.954588 -0.0854657 0)
(1.01731 -0.00112466 0)
(1.05853 -0.48955 0)
(1.04567 -5.16548e-05 0)
(1.04563 -0.000125529 0)
(1.04574 -0.000244605 0)
(1.04592 -0.000435067 0)
(1.04609 -0.000729605 0)
(1.04639 -0.00112548 0)
(1.04687 -0.00163148 0)
(1.04753 -0.00229655 0)
(1.04845 -0.0031996 0)
(1.04966 -0.00443561 0)
(1.05149 -0.00617689 0)
(1.05346 -0.0085748 0)
(1.05763 -0.012142 0)
(1.05902 -0.0169937 0)
(1.07147 -0.0246145 0)
(1.06314 -0.0364162 0)
(1.1003 -0.0488414 0)
(1.06232 -0.0995425 0)
(1.11281 -0.0634212 0)
(1.09122 -0.373845 0)
(1.08752 -6.94361e-05 0)
(1.08748 -0.000158044 0)
(1.08756 -0.000323547 0)
(1.08769 -0.000579721 0)
(1.08779 -0.000947642 0)
(1.08796 -0.00143843 0)
(1.08824 -0.00207677 0)
(1.08862 -0.00291938 0)
(1.08914 -0.0040544 0)
(1.08979 -0.00559835 0)
(1.09083 -0.00773049 0)
(1.0916 -0.0106649 0)
(1.09421 -0.0148085 0)
(1.09287 -0.0205516 0)
(1.10207 -0.0286775 0)
(1.08724 -0.0410014 0)
(1.11777 -0.0537161 0)
(1.06457 -0.0923524 0)
(1.11187 -0.0653113 0)
(1.05528 -0.278176 0)
(1.0956 -7.98114e-05 0)
(1.09555 -0.000175258 1.83211e-36)
(1.09561 -0.000362744 -1.83211e-36)
(1.09569 -0.000650181 0)
(1.09569 -0.00105179 0)
(1.09572 -0.00158466 0)
(1.09581 -0.00228085 0)
(1.09591 -0.00319869 0)
(1.09604 -0.00442526 0)
(1.09614 -0.00607882 0)
(1.09642 -0.00832324 0)
(1.09611 -0.011375 0)
(1.09724 -0.0155315 0)
(1.09385 -0.0212025 0)
(1.10017 -0.0287257 0)
(1.08182 -0.0395091 0)
(1.10773 -0.0501439 0)
(1.04909 -0.0775686 0)
(1.09815 -0.0561917 0)
(1.02461 -0.205444 0)
(1.09665 -8.22005e-05 0)
(1.09659 -0.000175702 1.45495e-35)
(1.09663 -0.00036269 -1.45495e-35)
(1.09665 -0.000648987 0)
(1.09657 -0.00104502 0)
(1.09647 -0.00156841 0)
(1.09637 -0.0022517 0)
(1.0962 -0.0031492 0)
(1.09596 -0.00433947 0)
(1.09555 -0.00592873 0)
(1.09514 -0.00805389 0)
(1.09392 -0.010897 0)
(1.0938 -0.0146621 0)
(1.08891 -0.019665 0)
(1.09312 -0.0260212 0)
(1.07279 -0.0346324 0)
(1.09619 -0.0427943 0)
(1.03539 -0.0619526 0)
(1.08754 -0.0450743 0)
(1.00522 -0.152027 0)
(1.09651 -7.73138e-05 0)
(1.09644 -0.000160277 1.8062e-36)
(1.09647 -0.000327106 -1.8062e-36)
(1.09644 -0.000582943 0)
(1.09628 -0.000935947 0)
(1.09606 -0.00140136 0)
(1.09579 -0.00200743 0)
(1.09539 -0.00279979 0)
(1.09483 -0.003843 0)
(1.09398 -0.00522344 0)
(1.09299 -0.00704692 0)
(1.09103 -0.00945032 0)
(1.08995 -0.0125641 0)
(1.08397 -0.0165957 0)
(1.08676 -0.0215596 0)
(1.06526 -0.0279923 0)
(1.08739 -0.0338889 0)
(1.02573 -0.0470585 0)
(1.08064 -0.0341026 0)
(0.993553 -0.110117 0)
(1.09625 -6.67442e-05 0)
(1.09618 -0.000131371 0)
(1.09618 -0.000261295 0)
(1.09612 -0.000461568 0)
(1.0959 -0.000738696 0)
(1.09558 -0.00110398 0)
(1.09518 -0.00157855 0)
(1.09458 -0.00219634 0)
(1.09376 -0.00300454 0)
(1.09257 -0.00406552 0)
(1.09113 -0.00545323 0)
(1.08862 -0.00726091 0)
(1.08685 -0.00956692 0)
(1.08013 -0.0124931 0)
(1.08201 -0.0160141 0)
(1.05983 -0.0204321 0)
(1.08136 -0.0243696 0)
(1.01941 -0.032975 0)
(1.07634 -0.0237531 0)
(0.986595 -0.0749191 0)
(1.09604 -5.23202e-05 0)
(1.09597 -9.23607e-05 0)
(1.09596 -0.00017242 0)
(1.09588 -0.000297787 0)
(1.0956 -0.000473485 0)
(1.09522 -0.000705951 0)
(1.09472 -0.0010077 0)
(1.09399 -0.0013994 0)
(1.09298 -0.00190965 0)
(1.09156 -0.00257572 0)
(1.08982 -0.00344053 0)
(1.08695 -0.00455715 0)
(1.08474 -0.00596679 0)
(1.07756 -0.0077338 0)
(1.07891 -0.00982876 0)
(1.05637 -0.0124032 0)
(1.07762 -0.0146443 0)
(1.01561 -0.0195318 0)
(1.07382 -0.0139825 0)
(0.982643 -0.0436144 0)
(1.09593 -3.56989e-05 0)
(1.09586 -4.70992e-05 7.13818e-36)
(1.09585 -6.90946e-05 -7.13818e-36)
(1.09575 -0.000107432 0)
(1.09545 -0.000165671 0)
(1.09503 -0.000244881 0)
(1.09448 -0.000348073 0)
(1.09368 -0.000481793 0)
(1.09258 -0.000655679 0)
(1.09104 -0.000882424 0)
(1.08915 -0.00117603 0)
(1.0861 -0.00155323 0)
(1.08367 -0.00202524 0)
(1.07628 -0.00261526 0)
(1.07738 -0.0033107 0)
(1.05469 -0.00415815 0)
(1.07584 -0.00487205 0)
(1.01382 -0.00648655 0)
(1.07265 -0.00458343 0)
(0.980848 -0.0143554 0)
(1.09593 -1.83798e-05 0)
(1.09586 3.95518e-07 0)
(1.09585 3.93465e-05 0)
(1.09575 9.21327e-05 0)
(1.09545 0.00015671 0)
(1.09503 0.000237546 0)
(1.09448 0.00034141 0)
(1.09368 0.000476286 0)
(1.09258 0.000651867 0)
(1.09104 0.000879629 0)
(1.08915 0.00117304 0)
(1.0861 0.00154948 0)
(1.08368 0.00202599 0)
(1.07628 0.00261684 0)
(1.07738 0.00331057 0)
(1.05469 0.00414944 0)
(1.07584 0.00490421 0)
(1.01382 0.00642547 0)
(1.07265 0.004689 0)
(0.980856 0.0142651 0)
(1.09604 -1.87588e-06 0)
(1.09597 4.58678e-05 0)
(1.09597 0.000143065 0)
(1.09588 0.000282795 0)
(1.09561 0.000464676 0)
(1.09522 0.000698607 0)
(1.09472 0.00100076 0)
(1.09399 0.00139334 0)
(1.09298 0.00190552 0)
(1.09156 0.00257347 0)
(1.08982 0.00343882 0)
(1.08695 0.00455376 0)
(1.08474 0.00596607 0)
(1.07756 0.0077346 0)
(1.07891 0.00982995 0)
(1.05638 0.0123955 0)
(1.07762 0.0146746 0)
(1.01561 0.0194727 0)
(1.07381 0.0140842 0)
(0.982667 0.0435275 0)
(1.09624 1.25434e-05 0)
(1.09618 8.54389e-05 0)
(1.0962 0.000232624 0)
(1.09613 0.000446944 0)
(1.0959 0.000730059 0)
(1.09558 0.00109683 0)
(1.09518 0.00157177 0)
(1.09459 0.0021903 0)
(1.09376 0.00300056 0)
(1.09257 0.00406404 0)
(1.09113 0.00545276 0)
(1.08862 0.00725742 0)
(1.08686 0.00956408 0)
(1.08013 0.0124932 0)
(1.08201 0.0160172 0)
(1.05984 0.0204257 0)
(1.08136 0.0243965 0)
(1.01942 0.0329199 0)
(1.07632 0.0238471 0)
(0.986632 0.0748385 0)
(1.0965 2.53246e-05 0)
(1.09645 0.000116732 0)
(1.09648 0.000300123 0)
(1.09646 0.000569096 0)
(1.09628 0.000927838 0)
(1.09607 0.00139504 0)
(1.0958 0.00200174 0)
(1.0954 0.00279468 0)
(1.09483 0.00383931 0)
(1.09398 0.00522148 0)
(1.09299 0.00704563 0)
(1.09103 0.00944641 0)
(1.08996 0.0125616 0)
(1.08398 0.0165976 0)
(1.08676 0.0215645 0)
(1.06526 0.0279859 0)
(1.08739 0.0339114 0)
(1.02574 0.0470094 0)
(1.08063 0.0341859 0)
(0.993601 0.110045 0)
(1.09664 3.7327e-05 0)
(1.0966 0.000138058 -1.45654e-35)
(1.09665 0.000339029 1.45654e-35)
(1.09667 0.000636501 0)
(1.09657 0.00103779 0)
(1.09647 0.00156319 0)
(1.09637 0.0022472 0)
(1.09621 0.00314484 0)
(1.09597 0.00433558 0)
(1.09556 0.00592602 0)
(1.09514 0.00805265 0)
(1.09392 0.0108955 0)
(1.09382 0.0146622 0)
(1.08892 0.0196672 0)
(1.09312 0.0260237 0)
(1.07279 0.0346246 0)
(1.09619 0.042814 0)
(1.0354 0.0619124 0)
(1.08752 0.045145 0)
(1.00527 0.151967 0)
(1.09559 4.72771e-05 0)
(1.09556 0.000147031 0)
(1.09564 0.000343679 0)
(1.09571 0.000639301 0)
(1.0957 0.00104562 0)
(1.09573 0.00158074 0)
(1.09582 0.00227769 0)
(1.09592 0.0031954 0)
(1.09605 0.00442214 0)
(1.09615 0.00607724 0)
(1.09642 0.00832406 0)
(1.09611 0.0113762 0)
(1.09725 0.0155311 0)
(1.09386 0.0212014 0)
(1.10016 0.0287262 0)
(1.08183 0.0395036 0)
(1.10773 0.0501622 0)
(1.0491 0.0775374 0)
(1.09813 0.0562474 0)
(1.02467 0.205398 0)
(1.08751 5.22913e-05 0)
(1.08748 0.000140745 0)
(1.08759 0.000308746 0)
(1.08772 0.000569732 0)
(1.0878 0.000942425 0)
(1.08796 0.0014362 0)
(1.08825 0.00207543 0)
(1.08863 0.00291757 0)
(1.08915 0.00405234 0)
(1.0898 0.0055979 0)
(1.09083 0.00773252 0)
(1.0916 0.0106661 0)
(1.09422 0.0148056 0)
(1.09287 0.0205491 0)
(1.10207 0.02868 0)
(1.08724 0.0410004 0)
(1.11777 0.0537294 0)
(1.06459 0.092328 0)
(1.11185 0.0653537 0)
(1.05534 0.278139 0)
(1.04565 4.98307e-05 0)
(1.04563 0.000118197 0)
(1.04576 0.000231907 0)
(1.04593 0.000424081 0)
(1.0461 0.000724528 0)
(1.0464 0.00112491 0)
(1.04687 0.00163208 0)
(1.04753 0.00229591 0)
(1.04846 0.0031977 0)
(1.04967 0.00443549 0)
(1.05149 0.00618036 0)
(1.05345 0.00857714 0)
(1.05764 0.0121391 0)
(1.05902 0.0169923 0)
(1.07147 0.0246177 0)
(1.06314 0.0364171 0)
(1.1003 0.0488494 0)
(1.06234 0.0995242 0)
(1.11278 0.0634511 0)
(1.09127 0.373821 0)
(0.87999 3.78958e-05 0)
(0.87998 8.12838e-05 0)
(0.880116 0.000127142 0)
(0.880299 0.000226658 0)
(0.880519 0.000419576 0)
(0.880911 0.000676208 0)
(0.881531 0.000984286 0)
(0.882406 0.00138087 0)
(0.883629 0.00192539 0)
(0.885297 0.00267935 0)
(0.887702 0.00376649 0)
(0.890744 0.00524004 0)
(0.895973 0.00758913 0)
(0.900508 0.010581 0)
(0.914385 0.0161281 0)
(0.916699 0.0241338 0)
(0.956653 0.03168 0)
(0.954599 0.0854572 0)
(1.01729 0.00114666 0)
(1.05858 0.489539 0)
(0.409712 1.37936e-05 0)
(0.409723 2.71349e-05 0)
(0.409813 3.4495e-05 0)
(0.40992 7.01412e-05 0)
(0.410095 0.000145163 0)
(0.410432 0.000234165 0)
(0.410953 0.000333169 0)
(0.411684 0.000462211 0)
(0.412699 0.000644084 0)
(0.414105 0.000900117 0)
(0.416098 0.00127332 0)
(0.418836 0.00178805 0)
(0.422956 0.00263186 0)
(0.428185 0.00371557 0)
(0.437737 0.00590787 0)
(0.447438 0.00858036 0)
(0.472675 0.0134456 0)
(0.489623 0.0295059 0)
(0.608294 0.00556851 0)
(0.373981 0.357695 0)
)
;

boundaryField
{
    movingWall
    {
        type            fixedValue;
        value           nonuniform 0();
    }
    fixedWalls
    {
        type            noSlip;
    }
    frontAndBack
    {
        type            empty;
    }
    right
    {
        type            zeroGradient;
    }
    left
    {
        type            fixedValue;
        value           uniform (1 0 0);
    }
}


// ************************************************************************* //
