/*--------------------------------*- C++ -*----------------------------------*\
  =========                 |
  \\      /  F ield         | OpenFOAM: The Open Source CFD Toolbox
   \\    /   O peration     | Website:  https://openfoam.org
    \\  /    A nd           | Version:  7
     \\/     M anipulation  |
\*---------------------------------------------------------------------------*/
FoamFile
{
    version     2.0;
    format      ascii;
    class       volScalarField;
    location    "0.1";
    object      p;
}
// * * * * * * * * * * * * * * * * * * * * * * * * * * * * * * * * * * * * * //

dimensions      [0 2 -2 0 0 0 0];

internalField   nonuniform List<scalar> 
1064
(
-0.225119
-0.628267
-0.985209
-1.398
-1.82918
-2.35685
-3.0197
-3.86647
-4.94423
-6.25826
-7.71501
-9.17088
-10.4787
-11.5472
-12.405
-13.1359
-13.8388
-14.6255
-15.9823
-18.8944
-0.15675
-0.541632
-1.02436
-1.49582
-1.95266
-2.49214
-3.14443
-3.95197
-4.9719
-6.24306
-7.67266
-9.10152
-10.3637
-11.3665
-12.1743
-12.8761
-13.5424
-14.2106
-15.0983
-16.7931
-0.106072
-0.474154
-1.03214
-1.53215
-1.99944
-2.53209
-3.15409
-3.89985
-4.8478
-6.11387
-7.62875
-9.148
-10.404
-11.317
-12.0376
-12.6779
-13.2781
-13.8259
-14.4324
-15.622
-0.0918782
-0.448252
-1.01426
-1.51679
-1.97579
-2.4855
-3.06692
-3.73878
-4.61397
-5.9492
-7.55482
-9.1774
-10.5525
-11.3677
-11.9811
-12.5562
-13.0928
-13.5481
-14.0119
-15.033
-0.0848245
-0.423219
-0.970465
-1.45258
-1.8806
-2.34268
-2.86616
-3.42949
-4.0692
-5.41511
-7.41577
-9.51175
-10.9283
-11.559
-12.0398
-12.5556
-13.0331
-13.4155
-13.7986
-14.7597
-0.0785239
-0.388975
-0.898169
-1.34001
-1.71047
-2.07726
-2.47064
-2.6618
-2.93243
-3.73798
-6.53509
-9.59074
-11.9926
-12.2536
-12.3525
-12.7393
-13.1241
-13.4259
-13.7511
-14.6963
-0.0697927
-0.340464
-0.7961
-1.18509
-1.48718
-1.73815
-1.89729
-2.01815
-2.47924
-3.22168
-5.96305
-9.18317
-12.5957
-13.1055
-12.9806
-13.0706
-13.3281
-13.5356
-13.8102
-14.7554
-0.0577326
-0.277516
-0.665103
-0.98831
-1.20814
-1.24871
-1.3863
-1.6406
-1.70962
-14.3696
-13.8327
-13.3851
-13.3914
-13.5318
-13.6674
-13.9081
-14.8602
-0.0442403
-0.209373
-0.519708
-0.759764
-0.803772
-0.657064
-0.753276
-0.916913
-14.8373
-13.9953
-13.5825
-13.565
-13.659
-13.7643
-13.9924
-14.954
-0.0343769
-0.159161
-0.410064
-0.567189
-0.54108
-0.146585
0.299621
0.234784
-14.2944
-13.8025
-13.5776
-13.5847
-13.6941
-13.806
-14.0391
-15.0082
-0.0324859
-0.145659
-0.377151
-0.496051
-0.417909
0.0351229
0.838385
-13.516
-13.4565
-13.4289
-13.4055
-13.5138
-13.6638
-13.8034
-14.0506
-15.0218
-0.040955
-0.178736
-0.439188
-0.572326
-0.469521
0.0984123
1.03564
-12.4924
-12.8448
-13.0316
-13.1107
-13.2417
-13.4213
-13.6166
-13.7868
-14.048
-15.0141
-0.0611503
-0.264858
-0.611485
-0.82483
-0.743476
0.0139582
1.60356
-12.8638
-12.3524
-12.5172
-12.6874
-12.894
-13.1131
-13.3494
-13.5859
-13.785
-14.0583
-15.0143
-0.0929408
-0.404959
-0.906476
-1.31475
-1.36665
-0.572629
1.19472
-11.5679
-11.7
-11.903
-12.1193
-12.4284
-12.7286
-13.0234
-13.3145
-13.5923
-13.8215
-14.1089
-15.055
-0.130356
-0.572257
-1.26465
-1.927
-2.09476
-1.88814
-1.97079
-8.58162
-10.9373
-11.1101
-11.2915
-11.7772
-12.2154
-12.6125
-12.981
-13.3277
-13.6504
-13.9162
-14.2269
-15.1716
-0.162631
-0.714905
-1.5574
-2.3579
-2.99513
-3.5302
-5.28051
-8.10615
-9.6601
-10.319
-10.9413
-11.547
-12.085
-12.5629
-12.9965
-13.3977
-13.7706
-14.0855
-14.4396
-15.4057
-0.183096
-0.792088
-1.6884
-2.51549
-3.26079
-4.14372
-5.68591
-7.49332
-9.0503
-10.0356
-10.7936
-11.4623
-12.0567
-12.5885
-13.0733
-13.5256
-13.956
-14.3405
-14.7767
-15.8143
-0.202735
-0.83351
-1.72554
-2.55261
-3.35068
-4.32002
-5.70856
-7.3698
-8.81638
-9.89535
-10.7514
-11.4777
-12.1129
-12.6808
-13.2031
-13.7012
-14.1962
-14.679
-15.2662
-16.4853
-0.26269
-0.911406
-1.71603
-2.53005
-3.37666
-4.43188
-5.78597
-7.29535
-8.70505
-9.86378
-10.8017
-11.5789
-12.2426
-12.8292
-13.3709
-13.9002
-14.4561
-15.0646
-15.942
-17.678
-0.342557
-1.00673
-1.65885
-2.42413
-3.29489
-4.40646
-5.78755
-7.3035
-8.74859
-9.97729
-10.9739
-11.7816
-12.4531
-13.0357
-13.5711
-14.1028
-14.6905
-15.4228
-16.7777
-19.7401
-7.89373
-6.30379
-7.67273
-6.53272
-7.89653
-6.29829
-7.65789
-2.94636
-1.85509
-2.94916
-2.47911
-2.94596
-1.85528
-2.94932
-4.4907
-3.75105
-3.22035
-4.47964
-3.75264
-7.61369
-5.93428
-7.51283
-12.355
-13.713
-9.25082
-12.3546
-13.7136
-1.56192
-1.31413
-1.64014
-1.5614
-1.3137
-2.56767
-1.70976
-2.56802
-14.3801
-15.2455
-14.3792
-15.248
-14.2395
-14.8218
-14.647
-14.3697
-14.2397
-14.8222
-14.6472
-0.73999
-0.280101
-0.429331
-0.753414
-0.740309
-0.280236
-0.429866
-0.251801
-0.917385
-0.257981
-15.2343
-14.8672
-15.2356
-14.8682
-14.6633
-14.698
-14.5817
-14.8377
-14.6635
-14.6984
-14.5819
0.120514
0.715564
1.03211
0.299928
0.124185
0.715704
1.03163
0.240411
-14.5967
-13.9929
-14.0126
-14.5978
-13.9923
-14.0123
1.16881
0.910996
1.27559
0.83851
1.16806
0.911343
1.27438
-12.9717
-12.9717
-13.7824
-13.0932
-13.2857
-13.5156
-13.7823
-13.0931
-13.2857
1.2333
1.0366
1.23551
-12.4783
-12.4784
-12.8116
-12.4334
-12.561
-12.4925
-12.8115
-12.4334
-12.561
2.78655
1.33814
1.54199
1.60791
2.79597
1.34265
1.5134
-12.2093
-11.3462
-11.7922
-12.2169
-11.3438
-11.791
-12.5777
-11.8902
-12.0853
-12.8663
-12.5779
-11.89
-12.0853
0.594936
-0.222081
-5.10078
1.20405
0.538849
-0.22115
-5.07381
-11.9053
-8.18876
-11.5489
-11.8998
-7.97839
-11.5345
-5.00042
-3.1839
-4.59766
-3.73713
-4.99892
-3.18259
-4.59497
-11.1133
-9.7912
-11.72
-9.59263
-11.1154
-9.79897
-11.7235
-6.02096
-6.27022
-5.74201
-6.26502
-5.83728
-11.8712
-9.13932
-11.029
-9.77497
-11.0461
-9.74975
-11.8146
-12.7246
-13.4189
-13.5918
-12.5962
-12.7248
-13.4194
-13.5919
-1.95139
-1.70662
-2.22135
-1.21937
-2.25679
-1.18247
-1.94117
-0.848739
-0.922846
-1.35688
-0.373601
-1.39124
-0.348664
-0.841461
0.227561
-14.3697
-14.7612
-14.7824
-14.3591
-14.2824
-13.8891
-13.9148
-14.2947
-14.2825
-13.8891
-13.9148
-13.5028
-13.5076
-13.9603
-13.1787
-13.9821
-13.1579
-13.5128
-12.5249
-12.4918
-12.8922
-12.1685
-12.9193
-12.142
-12.5259
-12.3214
-12.8937
-13.0346
-11.9145
-13.0735
-11.8793
-12.3119
-11.8412
-11.4132
-11.3577
-11.5648
-11.8396
-11.4092
-11.3558
-10.6869
-8.17402
-10.0232
-8.56273
-10.6807
-8.17327
-10.0227
-2.56528
-2.96215
-3.55438
-1.77774
-3.60055
-1.75143
-2.56784
-2.56522
-2.96229
-3.55437
-1.77777
-3.60054
-1.75148
-2.56771
-3.54332
-4.51827
-3.92908
-4.09644
-3.89498
-4.05668
-3.58325
-3.38648
-3.81414
-3.72274
-3.78468
-3.38038
-3.72608
-3.72173
-3.54137
-4.5138
-3.92365
-4.08843
-3.8925
-4.05345
-3.57866
-3.38576
-3.81407
-3.72281
-3.78413
-3.37955
-3.72472
-3.71886
-7.55265
-6.5363
-6.4401
-6.00771
-6.24325
-5.73223
-6.25091
-5.83095
-7.49403
-6.28683
-6.31245
-12.9825
-12.9797
-13.143
-13.7285
-13.1606
-13.6217
-13.1261
-13.5927
-13.1749
-11.8701
-9.16945
-11.0383
-9.77519
-11.0525
-9.74442
-11.8162
-12.9838
-12.9851
-13.1438
-13.7291
-13.1615
-13.6224
-13.1267
-13.5932
-13.1768
-1.31764
-1.34472
-0.991452
-1.34066
-0.984262
-1.31842
-1.31755
-1.34288
-0.991884
-1.34064
-0.985214
-1.31725
-2.58867
-2.02593
-2.01258
-1.17864
-1.16915
-1.9532
-1.70643
-2.22316
-1.21888
-2.25752
-1.18177
-1.94542
-2.58943
-2.02568
-2.01254
-1.1746
-1.16676
-14.9203
-14.4159
-14.2394
-14.8674
-14.2575
-14.8962
-14.9107
-15.2229
-15.2683
-15.0661
-15.4363
-15.0929
-15.4591
-15.1961
-14.9172
-14.4155
-14.2373
-14.8652
-14.2566
-14.8952
-14.904
-15.2226
-15.2696
-15.0663
-15.4413
-15.0931
-15.4616
-15.1954
-1.1481
-1.14396
-0.248599
-0.381514
-0.370054
-0.848797
-0.922851
-1.35684
-0.374995
-1.391
-0.349038
-0.842039
-1.14722
-1.14391
-0.250193
-0.384533
-0.371034
-15.4238
-15.256
-15.4587
-15.2051
-15.4868
-15.225
-15.4001
-15.2236
-14.8852
-15.0429
-14.9645
-15.0623
-14.9852
-15.199
-15.4243
-15.2566
-15.4604
-15.206
-15.4876
-15.2254
-15.4013
-15.2241
-14.8857
-15.0438
-14.9659
-15.0627
-14.9858
-15.2
0.518477
0.10518
0.177811
0.459685
0.168289
0.451096
0.511717
0.872475
1.03615
0.766156
1.0693
0.770823
1.0831
0.85641
0.51894
0.106055
0.179706
0.461959
0.168779
0.451721
0.513109
0.872627
1.03611
0.766777
1.06905
0.771013
1.08322
0.85674
0.228785
-14.2751
-14.6101
-14.7007
-14.3035
-14.7179
-14.3039
-14.2737
-14.2781
-14.0203
-14.1686
-14.195
-14.2659
-14.3678
-14.7643
-14.784
-14.3552
-14.2747
-14.6106
-14.7027
-14.3036
-14.7189
-14.3039
-14.2728
-14.2773
-14.0201
-14.1677
-14.1946
-14.2641
1.20933
1.17482
1.14855
1.25063
1.15937
1.2556
1.20094
1.22745
1.2766
1.27263
1.26523
1.27665
1.26798
1.22202
1.20965
1.17477
1.14841
1.25032
1.15957
1.25566
1.20099
1.22783
1.27634
1.27262
1.26502
1.27678
1.26815
1.22221
-13.4267
-13.4332
-12.7281
-12.736
-13.0323
-12.973
-13.39
-12.6312
-13.4174
-12.6111
-13.0264
-13.4266
-13.4331
-12.7281
-12.736
-13.0323
-12.973
-13.3899
-12.6312
-13.4174
-12.6111
-13.0263
-13.5027
-13.5075
-13.9599
-13.1785
-13.982
-13.1578
-13.5126
1.50035
1.36255
1.36596
1.49454
1.74551
2.02718
2.03966
1.74011
1.50106
1.36291
1.36644
1.49557
1.74674
2.03129
2.04142
1.74252
-12.5045
-12.5089
-12.5665
-12.5717
-12.4151
-12.4787
-12.7577
-12.2058
-12.7871
-12.18
-12.4155
-12.5046
-12.5089
-12.5669
-12.5719
-12.4152
-12.4788
-12.7579
-12.206
-12.7871
-12.1801
-12.4156
-12.5249
-12.4918
-12.8923
-12.1684
-12.9194
-12.1419
-12.5259
2.28523
2.82547
2.54404
2.37597
2.58121
2.40196
2.25132
2.07319
1.5442
2.14687
1.69051
2.14696
1.72155
2.04999
2.28472
2.8278
2.55258
2.37046
2.5846
2.39917
2.24988
2.06784
1.52938
2.126
1.67852
2.13705
1.71418
2.03965
-11.2798
-12.1798
-11.7255
-11.6808
-11.3093
-12.108
-11.3442
-11.6657
-11.6602
-12.1172
-11.2756
-12.1836
-11.7259
-11.6808
-11.3019
-12.1066
-11.3421
-11.6634
-11.6583
-12.1156
-12.3217
-12.8949
-13.0357
-11.9147
-13.0741
-11.8794
-12.3125
0.737295
0.563722
1.58991
-0.74155
1.65124
-0.848941
0.672148
0.749635
0.549951
1.59102
-0.906655
1.6579
-0.89656
0.673344
-11.5235
-11.8864
-11.5286
-11.516
-11.5328
-12.6089
-8.16229
-9.65166
-9.70951
-12.6769
-11.5152
-11.8821
-11.5201
-11.5088
-11.5246
-12.5742
-8.0895
-9.57744
-9.67316
-12.6041
-4.87886
-3.1117
-5.29341
-1.985
-4.89081
-3.12141
-5.30004
-0.773841
-5.15745
-2.43267
-2.28523
-2.53047
-2.33968
-0.814766
-0.754287
-5.12708
-2.41188
-2.32519
-2.5116
-2.35533
-0.791841
)
;

boundaryField
{
    fixedWalls
    {
        type            zeroGradient;
    }
    frontAndBack
    {
        type            empty;
    }
    right
    {
        type            fixedValue;
        value           uniform 0;
    }
    left
    {
        type            zeroGradient;
    }
    model
    {
        type            zeroGradient;
    }
}


// ************************************************************************* //
