/*--------------------------------*- C++ -*----------------------------------*\
  =========                 |
  \\      /  F ield         | OpenFOAM: The Open Source CFD Toolbox
   \\    /   O peration     | Website:  https://openfoam.org
    \\  /    A nd           | Version:  7
     \\/     M anipulation  |
\*---------------------------------------------------------------------------*/
FoamFile
{
    version     2.0;
    format      ascii;
    class       surfaceScalarField;
    location    "0.1";
    object      phi;
}
// * * * * * * * * * * * * * * * * * * * * * * * * * * * * * * * * * * * * * //

dimensions      [0 3 -1 0 0 0 0];

internalField   nonuniform List<scalar> 
2602
(
2.97781e-05
-1.1737e-06
3.1309e-05
-1.5309e-06
3.27044e-05
-1.39534e-06
3.43532e-05
-1.64882e-06
3.64711e-05
-2.11795e-06
3.90665e-05
-2.59531e-06
4.20534e-05
-2.98697e-06
4.5175e-05
-3.12161e-06
4.78688e-05
-2.69379e-06
4.92706e-05
-1.40173e-06
4.88997e-05
3.7084e-07
4.67397e-05
2.16006e-06
4.3313e-05
3.42667e-06
3.96284e-05
3.68459e-06
3.63687e-05
3.25975e-06
3.39164e-05
2.45229e-06
3.26885e-05
1.22786e-06
3.36351e-05
-9.46571e-07
3.93201e-05
-5.68506e-06
-1.08075e-05
5.56252e-05
-1.62848e-06
5.64842e-05
-2.38991e-06
5.82375e-05
-3.14864e-06
6.09015e-05
-4.31287e-06
6.44125e-05
-5.62888e-06
6.87675e-05
-6.95031e-06
7.3831e-05
-8.05053e-06
7.92422e-05
-8.5328e-06
8.41145e-05
-7.56609e-06
8.67723e-05
-4.05953e-06
8.62652e-05
8.78004e-07
8.2539e-05
5.88627e-06
7.65912e-05
9.37446e-06
7.03793e-05
9.89652e-06
6.49452e-05
8.69381e-06
6.06606e-05
6.73687e-06
5.76519e-05
4.23651e-06
5.58138e-05
8.91538e-07
5.40521e-05
-3.92334e-06
-6.86781e-06
5.78627e-05
-1.70882e-06
5.83796e-05
-2.90677e-06
6.0016e-05
-4.78505e-06
6.26674e-05
-6.9643e-06
6.63674e-05
-9.32878e-06
7.11869e-05
-1.17699e-05
7.71294e-05
-1.3993e-05
8.4059e-05
-1.54623e-05
9.1036e-05
-1.45431e-05
9.53603e-05
-8.38391e-06
9.50365e-05
1.20179e-06
8.9876e-05
1.10468e-05
8.1946e-05
1.73045e-05
7.44415e-05
1.7401e-05
6.84984e-05
1.46369e-05
6.40077e-05
1.12276e-05
6.06147e-05
7.62948e-06
5.77013e-05
3.80498e-06
5.40678e-05
-2.89844e-07
-2.89206e-06
5.56749e-05
-1.97666e-06
5.63378e-05
-3.56965e-06
5.78359e-05
-6.28316e-06
6.03305e-05
-9.45897e-06
6.40339e-05
-1.30322e-05
6.92341e-05
-1.697e-05
7.625e-05
-2.1009e-05
8.57759e-05
-2.49882e-05
9.65976e-05
-2.53648e-05
0.000102813
-1.45998e-05
0.000102687
1.3281e-06
9.60675e-05
1.76664e-05
8.38813e-05
2.94907e-05
7.38419e-05
2.74404e-05
6.72721e-05
2.12067e-05
6.27867e-05
1.5713e-05
5.94674e-05
1.09487e-05
5.64955e-05
6.77688e-06
5.30815e-05
3.12423e-06
1.22395e-07
5.28672e-05
-2.22065e-06
5.34259e-05
-4.12839e-06
5.46301e-05
-7.48733e-06
5.67373e-05
-1.15662e-05
6.01376e-05
-1.64326e-05
6.54073e-05
-2.22397e-05
7.32322e-05
-2.88339e-05
8.42861e-05
-3.60421e-05
9.18386e-05
-3.29173e-05
9.47113e-05
-5.30166e-06
-3.43383e-06
-5.30206e-06
-3.43486e-06
9.48801e-05
-5.70503e-07
1.15142e-06
-5.71986e-07
1.15035e-06
9.08948e-05
4.23874e-06
6.57997e-06
4.24825e-06
6.58475e-06
8.20178e-05
3.83677e-05
7.02124e-05
3.92458e-05
6.34757e-05
2.79434e-05
5.96218e-05
1.95669e-05
5.69947e-05
1.35758e-05
5.46743e-05
9.0973e-06
5.21054e-05
5.69314e-06
2.1868e-06
4.95528e-05
-2.31419e-06
4.9821e-05
-4.39655e-06
5.04708e-05
-8.13714e-06
5.17751e-05
-1.28705e-05
5.42076e-05
-1.88651e-05
5.84394e-05
-2.64715e-05
6.46367e-05
-3.50311e-05
6.19462e-05
-3.33516e-05
1.39291e-05
-5.94164e-06
-4.61055e-06
-5.94158e-06
-4.61069e-06
1.11392e-05
1.39276e-05
1.11375e-05
1.33482e-05
-4.72064e-06
-1.96485e-10
1.27969e-05
-6.89424e-07
-4.82538e-10
-1.26775e-05
-1.30016e-05
1.36281e-05
3.61194e-06
3.81854e-10
5.82811e-05
7.22867e-06
-1.38019e-05
-1.10112e-05
-1.37996e-05
-1.10091e-05
7.62514e-06
7.22899e-06
7.62553e-06
5.88697e-05
3.86572e-05
5.56139e-05
3.11992e-05
5.4325e-05
2.08557e-05
5.3433e-05
1.44678e-05
5.24454e-05
1.00849e-05
5.11279e-05
7.01066e-06
3.29968e-06
4.59658e-05
-2.16265e-06
4.57773e-05
-4.20811e-06
4.55946e-05
-7.95437e-06
4.56477e-05
-1.29236e-05
4.65309e-05
-1.97483e-05
4.9028e-05
-2.89686e-05
4.46647e-05
-3.06678e-05
9.54489e-06
-5.67078e-06
5.98039e-06
9.54463e-06
5.97914e-06
-4.19728e-06
-5.67156e-06
-4.19633e-06
8.38864e-06
-4.78535e-06
-3.14425e-11
-5.91113e-06
-2.36026e-10
3.19328e-06
7.54406e-07
1.14544e-06
1.11152e-06
7.67579e-07
-2.50039e-07
-2.76568e-07
-2.75839e-07
-2.58413e-07
2.73796e-07
-8.91484e-07
1.5758e-09
9.06545e-07
-2.90434e-07
-1.13667e-06
-5.33949e-07
-1.13491e-09
1.0713e-06
6.00451e-07
-6.19074e-06
7.77863e-06
5.64066e-06
1.12179e-10
3.90362e-05
2.86053e-05
-8.65957e-06
-5.83256e-06
-8.65963e-06
-5.83251e-06
4.4999e-05
2.52364e-05
4.77777e-05
1.8077e-05
4.94052e-05
1.28403e-05
5.01301e-05
9.36003e-06
5.02033e-05
6.93756e-06
3.51492e-06
4.24787e-05
-1.70218e-06
4.16813e-05
-3.41068e-06
4.03577e-05
-6.63083e-06
3.8576e-05
-1.11419e-05
3.70096e-05
-1.81819e-05
3.23631e-05
-2.43221e-05
6.36536e-06
-5.01564e-06
3.9078e-06
6.36517e-06
3.9073e-06
-4.40999e-06
-5.01524e-06
-4.40947e-06
4.95358e-06
-4.25889e-06
-1.03042e-10
5.30433e-07
-6.65661e-07
-9.31612e-11
4.58499e-07
-3.23177e-07
-2.61778e-07
2.22763e-06
2.60884e-06
2.51189e-11
-3.91318e-06
-2.58545e-07
-2.0535e-07
-1.97637e-07
2.68747e-05
1.52259e-05
-3.65315e-06
-3.0946e-06
-3.65326e-06
-3.0943e-06
3.65756e-05
1.55355e-05
4.25507e-05
1.2102e-05
4.61278e-05
9.26313e-06
4.82499e-05
7.23796e-06
4.94691e-05
5.71832e-06
3.01904e-06
3.95972e-05
-9.11447e-07
3.81114e-05
-1.92486e-06
3.5408e-05
-3.92738e-06
3.12946e-05
-7.02856e-06
2.46377e-05
-1.1525e-05
4.50193e-06
-1.4827e-05
3.06949e-06
4.50189e-06
3.06936e-06
3.32786e-06
-3.8416e-06
3.25083e-11
5.41332e-07
-4.47032e-07
1.40597e-10
2.70258e-07
-3.64699e-07
-1.41588e-06
-7.71643e-08
1.22669e-06
5.21228e-07
6.9059e-11
-7.65209e-08
-9.05282e-08
-8.78877e-08
2.24936e-05
2.44946e-06
-2.36288e-06
-2.49601e-06
-2.36252e-06
-2.49572e-06
3.30253e-05
5.00373e-06
3.99159e-05
5.21141e-06
4.43087e-05
4.87035e-06
4.71529e-05
4.39378e-06
4.9033e-05
3.83821e-06
2.10701e-06
3.79221e-05
1.3969e-07
3.5889e-05
1.08152e-07
3.20867e-05
-1.2506e-07
2.59872e-05
-9.29017e-07
1.70312e-05
-2.56898e-06
1.78648e-06
-3.96491e-06
1.29848e-06
1.78602e-06
1.29806e-06
2.56833e-06
-1.55717e-06
-6.50413e-11
1.52951e-07
2.33685e-07
2.31078e-07
1.57674e-07
5.9987e-08
-6.00065e-08
1.94697e-11
4.0253e-07
-1.4462e-07
1.68433e-06
-1.41914e-06
4.54833e-11
-1.42108e-07
-1.90733e-07
-1.90305e-07
2.47909e-05
-8.9658e-06
-2.88891e-06
-3.79899e-06
-2.8888e-06
-3.7989e-06
3.38687e-05
-4.07408e-06
3.99174e-05
-8.37257e-07
4.40629e-05
7.24791e-07
4.69158e-05
1.54091e-06
4.89202e-05
1.83389e-06
1.09816e-06
3.79112e-05
1.32803e-06
3.5582e-05
2.43732e-06
3.11824e-05
4.27453e-06
2.407e-05
6.18345e-06
1.36912e-05
7.80978e-06
8.02768e-07
6.8217e-06
6.50241e-07
8.02167e-07
6.49414e-07
6.15401e-07
2.28254e-08
-2.28908e-11
3.7725e-08
4.45107e-08
4.35138e-08
3.88132e-08
8.85478e-08
-8.52332e-11
1.45286e-07
-2.33749e-07
2.4961e-05
-2.0929e-05
-2.82164e-06
-4.37843e-06
-2.82174e-06
-4.37855e-06
2.65206e-06
2.53215e-06
2.65199e-06
2.53219e-06
3.22042e-05
-1.6209e-05
3.76112e-05
-9.48106e-06
4.1923e-05
-5.14909e-06
4.50972e-05
-2.44943e-06
4.74076e-05
-7.69406e-07
4.90854e-05
1.56094e-07
2.62521e-07
3.98042e-05
2.50177e-06
3.74664e-05
4.77516e-06
3.29685e-05
8.77236e-06
2.5517e-05
1.3635e-05
1.43308e-05
1.8996e-05
6.71956e-07
1.84467e-05
6.82846e-07
6.70802e-07
6.80166e-07
-5.98852e-07
1.24201e-06
-2.14303e-10
8.0426e-09
6.76262e-09
6.38296e-09
7.82864e-09
-3.26733e-12
1.64005e-07
-1.64002e-07
3.15783e-05
-2.78454e-05
3.44751e-06
4.42401e-06
3.44739e-06
4.42405e-06
-3.90965e-06
-5.82823e-06
-3.90959e-06
-5.82833e-06
3.70806e-05
-2.64313e-05
3.94879e-05
-1.86163e-05
4.22691e-05
-1.22623e-05
4.48183e-05
-7.69823e-06
4.68508e-05
-4.482e-06
4.83649e-05
-2.28343e-06
4.94375e-05
-9.16519e-07
-2.20988e-07
4.36314e-05
3.47001e-06
4.16514e-05
6.75514e-06
3.77251e-05
1.26987e-05
3.084e-05
2.05201e-05
1.9967e-05
2.98689e-05
1.61722e-06
3.16658e-05
1.76519e-06
1.60925e-06
1.75622e-06
-1.81984e-06
2.97674e-06
-8.7514e-10
1.08563e-07
1.22335e-07
1.19365e-07
1.10943e-07
-1.26224e-07
4.0634e-10
3.22073e-07
-1.96256e-07
4.0117e-05
-3.29914e-05
4.09405e-06
5.32902e-06
4.09414e-06
5.32913e-06
-5.18844e-06
-7.79753e-06
-5.18831e-06
-7.79766e-06
4.592e-05
-3.36485e-05
4.54051e-05
-2.59163e-05
4.57877e-05
-1.89988e-05
4.68224e-05
-1.32971e-05
4.79645e-05
-8.84036e-06
4.89211e-05
-5.43857e-06
4.95717e-05
-2.93398e-06
4.99009e-05
-1.24574e-06
-2.47119e-07
4.9154e-05
4.02285e-06
4.80342e-05
7.87492e-06
4.57953e-05
1.49377e-05
4.17046e-05
2.46108e-05
3.4777e-05
3.67966e-05
4.49635e-06
4.41482e-05
6.65923e-06
4.48098e-06
6.65801e-06
-4.08314e-06
6.65911e-06
-1.70466e-09
5.31738e-07
4.26709e-07
4.13922e-07
5.49711e-07
3.48863e-07
-4.22525e-07
4.80684e-06
-4.15549e-06
-5.6701e-10
3.42943e-07
3.81819e-07
3.84061e-07
-4.16495e-07
-6.35767e-07
-6.33687e-07
5.12339e-05
-3.62275e-05
4.54536e-06
5.95333e-06
4.54508e-06
5.9536e-06
-7.5182e-06
-1.04811e-05
-7.52056e-06
-1.04839e-05
5.6963e-05
-3.87206e-05
5.42094e-05
-3.08948e-05
5.22518e-05
-2.39587e-05
5.12752e-05
-1.80223e-05
5.09912e-05
-1.30131e-05
5.10151e-05
-8.86419e-06
5.10429e-05
-5.46637e-06
5.08739e-05
-2.76504e-06
5.04248e-05
-7.96563e-07
2.37681e-07
5.56815e-05
4.0146e-06
5.58076e-05
7.7488e-06
5.62632e-05
1.44821e-05
5.76561e-05
2.32179e-05
5.71416e-05
3.73111e-05
1.2265e-05
4.54536e-05
1.56412e-05
1.22766e-05
1.56536e-05
-8.07373e-06
1.26782e-05
7.65764e-06
2.85578e-09
-2.2203e-07
1.34178e-05
-9.0271e-07
-3.28826e-09
-2.03167e-07
2.8078e-07
3.10291e-07
-1.26776e-05
6.93993e-05
-3.53765e-05
6.55556e-06
6.70635e-06
6.55184e-06
6.70455e-06
-1.37522e-05
-1.65133e-05
-1.37615e-05
-1.65141e-05
7.27162e-05
-3.95444e-05
6.61357e-05
-3.21401e-05
6.12646e-05
-2.60237e-05
5.79617e-05
-2.06557e-05
5.58461e-05
-1.59068e-05
5.45554e-05
-1.17223e-05
5.37276e-05
-8.03648e-06
5.30299e-05
-4.76862e-06
5.21728e-05
-1.90796e-06
5.09891e-05
3.87147e-07
1.26881e-06
6.20919e-05
3.51438e-06
6.33377e-05
6.50307e-06
6.61944e-05
1.16254e-05
7.16784e-05
1.77339e-05
8.34749e-05
2.55145e-05
9.84626e-05
3.04659e-05
0.000105594
1.47978e-05
-7.15428e-06
-3.83032e-06
-7.13851e-06
-3.80566e-06
0.000102897
-9.46107e-06
1.34418e-06
4.72863e-06
1.35462e-06
4.7301e-06
9.36241e-05
-2.61035e-05
8.10433e-05
-2.69636e-05
7.24528e-05
-2.35497e-05
6.6433e-05
-2.00039e-05
6.22086e-05
-1.64314e-05
5.92886e-05
-1.29868e-05
5.72979e-05
-9.73167e-06
5.58917e-05
-6.63035e-06
5.47221e-05
-3.59896e-06
5.3398e-05
-5.83856e-07
5.15986e-05
2.18646e-06
2.89047e-06
6.72891e-05
2.86306e-06
6.8834e-05
4.95819e-06
7.21864e-05
8.27291e-06
7.8031e-05
1.18894e-05
8.82587e-05
1.52868e-05
0.000102485
1.62395e-05
0.000109144
8.13864e-06
0.000105029
-5.34581e-06
9.33739e-05
-1.44485e-05
8.29944e-05
-1.6584e-05
7.52596e-05
-1.58149e-05
6.93083e-05
-1.40526e-05
6.47846e-05
-1.19077e-05
6.14324e-05
-9.63463e-06
5.90164e-05
-7.31565e-06
5.72906e-05
-4.90455e-06
5.5934e-05
-2.24238e-06
5.44731e-05
8.77092e-07
5.22935e-05
4.36607e-06
5.18794e-06
7.1026e-05
2.44474e-06
7.22857e-05
3.6985e-06
7.54303e-05
5.12831e-06
8.0418e-05
6.90168e-06
8.74036e-05
8.3012e-06
9.56027e-05
8.04044e-06
9.9997e-05
3.74429e-06
9.71662e-05
-2.51493e-06
9.01041e-05
-7.3864e-06
8.26965e-05
-9.17645e-06
7.60871e-05
-9.20548e-06
7.04664e-05
-8.43179e-06
6.58606e-05
-7.30194e-06
6.22416e-05
-6.0156e-06
5.95371e-05
-4.6111e-06
5.76409e-05
-3.00843e-06
5.63545e-05
-9.55922e-07
5.52107e-05
2.02086e-06
5.30964e-05
6.48037e-06
8.27034e-06
6.88462e-05
1.61674e-06
7.03791e-05
2.16556e-06
7.3328e-05
2.17936e-06
7.76224e-05
2.60729e-06
8.28743e-05
3.0493e-06
8.80925e-05
2.82226e-06
9.05436e-05
1.29319e-06
8.88875e-05
-8.58824e-07
8.41135e-05
-2.61242e-06
7.83035e-05
-3.36647e-06
7.25353e-05
-3.43719e-06
6.72776e-05
-3.17418e-06
6.27396e-05
-2.7639e-06
5.90081e-05
-2.28403e-06
5.61387e-05
-1.74171e-06
5.41837e-05
-1.0535e-06
5.32213e-05
6.50473e-09
5.31965e-05
2.04567e-06
5.30333e-05
6.6435e-06
1.12756e-05
3.72399e-05
3.94054e-05
4.15848e-05
4.41921e-05
4.72414e-05
5.00637e-05
5.13569e-05
5.0498e-05
4.78856e-05
4.45192e-05
4.1082e-05
3.79078e-05
3.51439e-05
3.28599e-05
3.11182e-05
3.00646e-05
3.00712e-05
3.21168e-05
3.87603e-05
9.46074e-07
5.78336e-10
8.99561e-06
-9.67975e-10
-8.73267e-06
-2.77426e-07
-2.06771e-07
-1.93396e-07
-2.77701e-09
3.44493e-07
9.09658e-06
3.30197e-07
8.91125e-08
8.40827e-08
1.27975e-05
-6.94966e-07
-1.2675e-05
9.49267e-07
1.29992e-05
8.9791e-06
-2.77045e-07
-8.72815e-06
-2.79038e-07
-1.99916e-07
-1.90889e-07
3.26205e-07
9.10079e-06
3.24277e-07
8.89624e-08
8.5359e-08
-7.91313e-11
-5.84383e-07
-4.8872e-07
-4.68826e-07
-5.91032e-07
3.97312e-11
-5.21778e-07
-4.02312e-07
-3.95917e-07
8.57765e-07
6.64296e-07
6.46145e-07
8.77234e-07
2.5427e-07
-1.32198e-07
2.97404e-10
2.97404e-07
-4.19774e-07
8.38651e-06
-4.78349e-06
5.90854e-06
-5.84278e-07
-4.88718e-07
-4.68936e-07
-5.90857e-07
-5.30344e-07
8.57665e-07
6.64336e-07
6.4623e-07
8.77098e-07
-5.21751e-07
-4.01872e-07
-3.9567e-07
2.54171e-07
-1.31837e-07
2.96854e-10
2.97416e-07
-4.20047e-07
4.39093e-07
6.33789e-10
-1.01926e-06
-3.11954e-07
3.60556e-10
2.53909e-07
3.19245e-06
7.54134e-07
1.14436e-06
1.11086e-06
7.66944e-07
-2.49962e-07
-2.76466e-07
-2.75688e-07
-2.58331e-07
8.89131e-07
4.39545e-07
7.84885e-10
-1.01774e-06
-3.11723e-07
3.50977e-10
2.53819e-07
-1.55759e-09
-7.90618e-07
1.99542e-09
8.99895e-07
-2.89804e-07
1.11519e-06
-5.24456e-10
-7.88465e-07
-6.37043e-11
-5.29195e-06
-7.99547e-07
-1.25126e-06
-1.21728e-06
-8.14449e-07
6.96769e-07
9.01395e-07
8.75804e-07
7.09829e-07
5.8238e-07
4.53567e-07
4.0207e-10
-7.46171e-07
-2.90177e-07
-5.4712e-07
-2.14215e-09
1.06648e-06
5.97978e-07
-5.29725e-06
6.18954e-06
-7.98351e-07
-1.24922e-06
-1.21604e-06
-8.12067e-07
6.96726e-07
9.01076e-07
8.75652e-07
7.09882e-07
5.81996e-07
4.53557e-07
4.0216e-10
-7.45814e-07
-2.90141e-07
-1.12668e-10
6.50447e-07
4.58364e-07
4.50452e-07
-4.55011e-07
-2.80736e-07
-2.75916e-07
-4.56837e-07
-6.11417e-11
-5.31672e-07
-3.81188e-07
-3.75934e-07
4.698e-07
2.71225e-07
2.66589e-07
4.71484e-07
4.95185e-06
-4.25833e-06
6.65428e-07
-4.54901e-07
-2.80936e-07
-2.76187e-07
-4.56584e-07
6.50401e-07
4.57921e-07
4.50266e-07
-5.41298e-07
4.69742e-07
2.71136e-07
2.66529e-07
4.71325e-07
-5.31594e-07
-3.81099e-07
-3.75826e-07
5.83891e-11
-1.32256e-07
-1.02979e-10
4.57799e-07
-3.22612e-07
5.93403e-11
-1.31896e-07
8.89122e-10
-1.25168e-07
4.44879e-07
1.13308e-07
1.61413e-07
5.42058e-10
-2.41261e-07
-3.4002e-08
2.61929e-07
9.04571e-10
-1.25204e-07
4.44367e-07
1.12865e-07
1.61182e-07
5.10482e-10
-2.40559e-07
-3.39977e-08
3.5602e-06
2.88498e-11
-4.98576e-06
1.63782e-06
7.93132e-11
-1.08859e-07
-1.11879e-07
-1.10894e-07
3.30932e-11
2.10339e-06
2.2277e-06
2.6089e-06
-3.9127e-06
-2.58624e-07
-2.05584e-07
-1.97738e-07
3.56027e-06
-4.98581e-06
1.63742e-06
1.41568e-06
-1.08662e-07
-1.11767e-07
-1.10828e-07
2.10342e-06
-2.58899e-06
6.41784e-11
4.39427e-07
3.11875e-07
3.08462e-07
1.79618e-06
2.90792e-11
1.00074e-10
8.53609e-08
-2.64358e-07
8.26597e-08
1.18776e-07
1.15911e-07
-2.59327e-07
-3.403e-07
-3.31634e-07
3.32804e-06
-3.84136e-06
-2.58806e-06
4.46964e-07
4.39334e-07
3.11922e-07
3.08482e-07
1.79542e-06
-2.5674e-06
8.51702e-08
-2.64001e-07
8.26259e-08
1.18737e-07
1.15887e-07
-2.593e-07
-3.40044e-07
-3.31618e-07
-4.24743e-11
1.45391e-07
1.29563e-10
2.70133e-07
-3.64597e-07
-5.98476e-08
-1.02724e-10
1.4512e-07
4.8686e-10
-2.22881e-08
1.06048e-07
1.09957e-07
-7.31373e-08
4.63966e-10
1.08486e-08
-4.81323e-08
7.69392e-08
4.70735e-10
-2.20932e-08
1.05864e-07
1.09792e-07
-7.31076e-08
4.5052e-10
1.08483e-08
-4.79828e-08
9.67154e-07
3.91576e-11
1.30709e-06
5.88701e-11
-1.08134e-07
-8.32486e-08
-8.20511e-08
3.62078e-11
-2.21791e-07
1.22618e-06
5.21081e-07
-7.64084e-08
-9.03532e-08
-8.78089e-08
9.67123e-07
1.30672e-06
-4.0262e-07
-1.08061e-07
-8.31162e-08
-8.19928e-08
-2.21833e-07
5.2515e-10
-1.41484e-07
-1.83407e-07
-2.82204e-11
1.03458e-07
7.51868e-08
7.26492e-08
1.05436e-07
-2.94243e-08
-5.78281e-11
5.55189e-08
-2.60368e-08
-1.55634e-06
1.52943e-07
2.33445e-07
2.30965e-07
1.57547e-07
5.98799e-08
6.20555e-10
-1.4135e-07
-1.83152e-07
-6.14876e-07
1.03426e-07
7.51026e-08
7.26853e-08
1.05343e-07
-2.94409e-08
-6.43094e-11
5.55093e-08
-2.60041e-08
3.11917e-11
3.44487e-10
-7.70084e-08
-1.41092e-07
1.13118e-10
8.84345e-08
-5.5363e-11
-1.84963e-06
1.46032e-06
1.92176e-07
2.09067e-07
2.05383e-07
1.95668e-07
-8.82286e-08
-1.17314e-07
-1.16454e-07
-9.09366e-08
1.44401e-07
3.29705e-10
-7.68104e-08
-1.41028e-07
-8.85255e-08
1.14416e-10
8.84112e-08
-1.84939e-06
1.46049e-06
1.92087e-07
2.09002e-07
2.05353e-07
1.95462e-07
-8.82536e-08
-1.17346e-07
-1.16456e-07
-9.09996e-08
-7.93372e-11
-1.43145e-08
-1.50307e-08
-6.71836e-11
2.27503e-08
1.40793e-08
1.40984e-08
2.3344e-08
-1.86847e-12
-1.82018e-09
1.82205e-09
2.27302e-08
3.77597e-08
4.44833e-08
4.34987e-08
3.87915e-08
-8.9103e-11
-1.42259e-08
-1.51265e-08
5.9789e-07
2.27952e-08
1.3985e-08
1.40576e-08
2.33454e-08
-3.69931e-12
-1.85408e-09
1.85778e-09
4.35548e-07
-4.38024e-07
3.72236e-11
2.77031e-07
-2.74592e-07
4.35562e-07
-4.3802e-07
3.76524e-11
2.77018e-07
-2.74597e-07
-3.4101e-06
-1.99612e-11
-3.72901e-07
-2.58707e-07
-2.52397e-07
-3.7714e-07
3.36452e-06
-9.30165e-12
4.39546e-07
3.3856e-07
3.34272e-07
4.48508e-07
-4.28289e-07
-3.09159e-07
-3.04901e-07
-8.45454e-12
-8.33866e-11
1.45292e-07
-2.33735e-07
-3.40991e-06
-3.72919e-07
-2.58727e-07
-2.52409e-07
-3.77182e-07
3.36443e-06
-4.28285e-07
-3.09146e-07
-3.04888e-07
4.3955e-07
3.38511e-07
3.34251e-07
4.48513e-07
-4.93894e-10
2.81412e-08
2.42092e-08
2.38481e-08
2.9295e-08
1.23952e-06
8.02858e-09
6.7343e-09
6.41279e-09
7.77305e-09
1.81428e-06
2.81263e-08
2.38557e-08
2.37492e-08
2.91757e-08
5.49304e-07
-5.08718e-07
1.42192e-11
3.0654e-07
-3.4714e-07
5.4918e-07
-5.08648e-07
1.23019e-11
3.06537e-07
-3.47081e-07
-3.81548e-06
-1.11906e-12
-4.71559e-07
-3.24284e-07
-3.20028e-07
-4.80323e-07
4.29563e-07
3.19149e-07
3.15287e-07
4.31469e-06
3.87692e-12
4.58728e-07
3.3873e-07
3.34472e-07
4.67207e-07
-5.38831e-07
-3.68278e-07
-3.63371e-07
1.6164e-13
-3.36072e-12
1.64009e-07
-1.64005e-07
-3.81546e-06
4.29556e-07
3.19166e-07
3.15287e-07
-4.71524e-07
-3.24329e-07
-3.20055e-07
-4.80253e-07
4.31466e-06
-5.38806e-07
-3.68294e-07
-3.63363e-07
4.58704e-07
3.38767e-07
3.34491e-07
4.6716e-07
-7.34205e-11
-4.06045e-08
4.0678e-08
-8.50771e-10
1.60875e-07
1.66621e-07
1.63955e-07
1.68179e-07
2.2321e-07
-3.18605e-11
-1.4166e-07
-8.15178e-08
2.95927e-06
1.09034e-07
1.22986e-07
1.19966e-07
1.11396e-07
-6.16339e-11
-4.12108e-08
4.12726e-08
4.05458e-06
1.61667e-07
1.66445e-07
1.62525e-07
1.69421e-07
2.25599e-07
-2.32471e-10
-1.43941e-07
-8.14262e-08
-7.99991e-11
-1.26144e-07
-1.23709e-11
3.48876e-07
-2.01243e-10
3.66969e-06
-3.09128e-06
2.29609e-07
2.08225e-07
2.06061e-07
2.35662e-07
-3.03378e-07
-4.23079e-07
-4.23467e-07
-3.07838e-07
1.25502e-07
-8.96744e-11
-1.25412e-07
-3.49026e-07
-1.06397e-11
3.49037e-07
3.67063e-06
-3.09096e-06
2.29541e-07
2.07588e-07
2.05801e-07
2.3548e-07
-3.0343e-07
-4.23316e-07
-4.23613e-07
-3.07927e-07
-4.52651e-06
2.71989e-11
-6.95188e-07
-5.05279e-07
-4.97514e-07
-7.08617e-07
4.99649e-07
3.70604e-07
3.65667e-07
6.37071e-06
-3.67843e-11
5.4071e-07
3.8345e-07
3.71615e-07
5.48604e-07
-2.33435e-12
3.8945e-10
3.21884e-07
-1.96772e-07
-4.52643e-06
4.99641e-07
3.70599e-07
3.65657e-07
-6.9516e-07
-5.05206e-07
-4.9749e-07
-7.08547e-07
6.37049e-06
5.40738e-07
3.83963e-07
3.71815e-07
5.48662e-07
4.44789e-10
-1.91262e-07
4.14028e-07
-1.74943e-10
9.49456e-07
1.67628e-06
1.6338e-06
9.85239e-07
2.35107e-06
7.12553e-07
1.75427e-09
-1.46818e-06
-1.5972e-06
6.61434e-06
5.2587e-07
4.34479e-07
4.21591e-07
5.37573e-07
-1.68189e-10
-2.08887e-07
4.34654e-07
8.04551e-06
9.44064e-07
1.67435e-06
1.6331e-06
9.7516e-07
2.34515e-06
7.15886e-07
1.70341e-09
-1.46427e-06
-1.59847e-06
-1.10265e-10
-4.22414e-07
-3.85731e-10
2.12943e-06
-2.57749e-09
7.17576e-06
-4.49789e-06
5.17059e-07
5.30951e-07
5.33391e-07
5.26775e-07
-8.59997e-07
-1.52728e-06
-1.51469e-06
-8.81512e-07
4.23064e-07
-1.03813e-10
-4.22961e-07
2.02365e-07
1.68117e-09
2.1411e-06
7.18798e-06
-4.50327e-06
5.17927e-07
5.3183e-07
5.34396e-07
5.27659e-07
-8.61112e-07
-1.53706e-06
-1.51605e-06
-8.84875e-07
-2.76276e-06
-3.03944e-10
9.61208e-06
-2.62589e-10
-4.64777e-10
-4.19257e-07
-5.14842e-07
-5.09694e-07
1.33464e-05
-4.72103e-06
-2.76374e-06
9.60861e-06
-4.1939e-07
-5.15074e-07
-5.09728e-07
6.40564e-06
4.89162e-10
9.89818e-06
1.31103e-09
5.29006e-07
8.82207e-07
8.63858e-07
6.83273e-10
1.3629e-05
3.61879e-06
6.41466e-06
9.89096e-06
5.34546e-07
8.84073e-07
8.64196e-07
8.72865e-07
-2.85491e-07
-8.62873e-07
-3.49587e-10
-8.94409e-11
6.99865e-07
2.86094e-10
-2.90719e-07
6.79614e-07
-2.3413e-10
-2.85186e-07
-1.88686e-11
-6.87453e-07
-5.80435e-07
-1.44353e-09
4.69812e-07
-2.78857e-11
1.0406e-06
5.8051e-07
-1.094e-06
7.65992e-10
4.30277e-10
7.01823e-07
-9.44698e-11
6.00544e-07
1.56544e-10
-1.98909e-11
4.86476e-07
6.74416e-06
3.82178e-11
4.07417e-06
9.29856e-11
-4.3946e-07
-7.33913e-07
-7.19843e-07
2.41043e-11
7.77824e-06
5.6404e-06
6.74418e-06
4.07411e-06
-4.39476e-07
-7.33586e-07
-7.19705e-07
2.35508e-07
-2.35455e-07
-6.35639e-11
1.11295e-11
4.4407e-07
-3.15489e-07
-5.4825e-12
1.21319e-09
-2.42475e-07
2.9745e-07
-1.11991e-09
2.42541e-07
-1.06234e-07
2.84851e-07
2.41612e-11
-1.0159e-07
-2.06033e-11
2.0781e-07
-2.07766e-07
-4.39589e-11
3.48814e-13
2.63938e-07
-3.56043e-07
1.27695e-13
5.18852e-10
-2.12332e-07
1.00884e-07
-8.15929e-10
2.12378e-07
-2.64387e-07
9.63366e-08
-3.58608e-12
-2.56175e-07
1.1832e-11
5.79049e-08
-5.78821e-08
-3.26451e-12
3.16296e-08
-1.14243e-10
4.52262e-08
-7.67213e-08
-2.0116e-11
4.99556e-11
-3.24171e-08
3.23672e-08
3.16763e-08
3.65284e-12
4.68031e-08
-7.93339e-08
-1.4264e-06
2.62409e-11
2.69325e-06
-3.71129e-13
7.46118e-12
1.68408e-06
-1.41925e-06
-1.42007e-07
-1.90701e-07
-1.90294e-07
-1.42653e-06
2.69323e-06
3.041e-07
-2.37725e-07
2.71509e-10
-2.77381e-12
1.40605e-07
-2.27921e-07
8.72321e-08
-1.51839e-12
4.99474e-10
-3.14283e-07
2.00363e-07
-5.61161e-10
2.42645e-07
-1.37274e-07
1.92811e-07
-4.21921e-12
-1.31933e-07
-1.89358e-12
2.79003e-07
-2.91862e-07
2.88268e-11
-2.0302e-14
1.60266e-07
-1.60269e-07
4.22384e-14
7.24765e-10
-2.86122e-07
1.25119e-07
-7.5368e-10
2.9921e-07
-1.23728e-07
1.19963e-07
1.10093e-12
-1.18411e-07
-7.51513e-13
3.37414e-07
-4.9162e-07
-2.81882e-10
7.52769e-12
3.13985e-07
-1.88855e-07
-1.2474e-07
1.63027e-11
1.31233e-09
-3.46639e-07
1.6212e-07
-7.72768e-10
5.06935e-07
-3.1897e-07
1.55178e-07
1.85739e-11
-3.09636e-07
2.2604e-12
-5.80233e-06
-3.09641e-10
9.57668e-06
-8.40746e-10
-4.40382e-10
4.8092e-06
-4.15661e-06
3.43091e-07
3.81997e-07
3.84248e-07
-4.16863e-07
-6.36942e-07
-6.34652e-07
-5.80262e-06
9.58238e-06
-4.83108e-06
-1.26719e-09
1.66156e-05
-1.48505e-10
-1.6174e-05
-1.23468e-10
1.34313e-05
-9.13695e-07
-1.97961e-07
2.83664e-07
3.12521e-07
-1.27167e-05
-4.83474e-06
1.66188e-05
-1.6178e-05
6.69265e-07
-3.95952e-07
7.0803e-11
-1.68025e-12
2.85117e-07
-4.05642e-07
2.99852e-12
2.49448e-07
-1.28629e-07
1.17178e-09
-6.96814e-07
5.04326e-07
-6.26493e-10
4.10543e-07
-1.65395e-07
-2.37133e-13
4.86727e-07
1.11079e-12
-1.56079e-07
6.69097e-07
-3.95779e-07
6.89339e-11
2.85228e-07
-4.05837e-07
2.49381e-07
-1.28473e-07
1.17198e-09
-6.96493e-07
5.04018e-07
-6.26279e-10
4.10185e-07
-1.6527e-07
4.86559e-07
-1.56012e-07
3.81444e-07
5.84685e-07
1.12798e-09
-2.12798e-07
-5.32957e-11
-9.82403e-07
-2.98994e-07
-9.94672e-11
-9.35355e-10
-3.87723e-07
-5.47244e-10
-6.02126e-07
-6.56292e-11
-4.3536e-11
-2.21143e-07
-4.62706e-07
-1.0075e-10
2.12779e-07
-1.15317e-11
2.49808e-07
-3.67711e-13
1.99457e-09
4.79672e-07
-1.69063e-11
2.21157e-07
-1.42316e-11
-4.40561e-12
3.81353e-07
5.84377e-07
1.05361e-09
-2.12703e-07
-9.81563e-07
-2.9902e-07
8.61879e-07
-8.54072e-10
-3.876e-07
-4.81436e-10
-6.01341e-07
2.901e-07
2.84831e-07
-2.20943e-07
-4.6256e-07
-1.02572e-10
2.12689e-07
2.49731e-07
1.97457e-09
4.79396e-07
2.20962e-07
-1.92155e-11
-7.63764e-07
-1.59886e-09
-1.64124e-09
-1.70864e-09
8.69596e-07
-2.85109e-07
1.2943e-10
6.99851e-07
2.96318e-10
6.78603e-07
-7.62601e-07
1.08476e-06
3.4842e-10
-2.28387e-11
4.69824e-07
1.11983e-11
4.86453e-07
5.63713e-07
6.01555e-07
1.29446e-09
3.12128e-11
-7.18533e-07
-2.77592e-07
1.55185e-11
5.57053e-07
-1.12203e-09
-5.77567e-07
-5.69722e-10
-6.2001e-07
3.30401e-07
1.85809e-11
9.90551e-12
3.23384e-07
-6.87105e-07
-5.79352e-07
-1.37498e-09
4.69453e-07
1.03844e-06
5.79488e-07
3.58361e-10
7.00971e-07
-1.161e-10
5.98094e-07
4.85623e-07
1.01932e-11
4.69454e-07
4.85634e-07
5.635e-07
6.01374e-07
1.33753e-09
-7.18336e-07
-2.77567e-07
5.56848e-07
-1.13061e-09
-5.77193e-07
-5.74593e-10
-6.19662e-07
3.30095e-07
3.23243e-07
3.77604e-07
-3.6284e-07
2.85247e-11
-3.16399e-12
-7.49282e-11
-3.8686e-07
1.06199e-07
-7.24944e-11
3.72188e-07
-1.0089e-07
-2.97736e-13
1.01615e-07
9.46227e-12
-9.63318e-08
3.77626e-07
-3.62776e-07
-1.06939e-11
-4.10071e-11
-3.86701e-07
1.05807e-07
-6.77468e-11
3.71975e-07
-1.00771e-07
1.01398e-07
-9.63048e-08
-1.28573e-07
2.11182e-12
-1.98975e-10
-6.42139e-13
-3.24096e-11
-8.05628e-12
2.35406e-07
-2.35346e-07
-4.83046e-11
4.43685e-07
-3.15143e-07
1.17595e-09
-2.42216e-07
2.96968e-07
-1.12153e-09
2.42267e-07
-1.05836e-07
2.84621e-07
-1.01364e-07
-1.28412e-07
-1.95519e-10
-2.65884e-11
-1.99015e-07
7.65517e-08
-1.35281e-10
1.22642e-07
-4.35534e-11
-1.24661e-07
4.24067e-07
-8.08329e-12
2.77724e-10
2.04955e-07
6.9976e-10
-7.93491e-08
3.1818e-07
-1.29259e-11
3.03705e-07
-2.22519e-11
1.25472e-07
3.65732e-08
8.64483e-08
-3.74513e-10
-3.902e-12
-2.30027e-07
-3.28594e-08
2.96898e-11
1.54541e-07
6.4728e-10
-3.56086e-08
3.18632e-10
-8.94894e-08
5.5167e-08
4.5286e-12
3.30569e-11
5.38746e-08
-1.98844e-07
7.65482e-08
-1.84473e-10
1.22438e-07
-1.24682e-07
4.23801e-07
2.96111e-10
2.04596e-07
7.27893e-10
-7.93373e-08
3.17392e-07
3.03317e-07
1.25075e-07
3.65475e-08
8.62633e-08
-3.77091e-10
-2.29685e-07
-3.28606e-08
1.54424e-07
6.44261e-10
-3.55779e-08
2.81569e-10
-8.91204e-08
5.48405e-08
5.37176e-08
-4.76401e-12
-5.54412e-14
1.40501e-07
2.06286e-11
-2.18778e-10
1.82456e-11
2.07767e-07
-2.07726e-07
-4.08277e-11
2.63856e-07
-3.55986e-07
5.15836e-10
-2.12247e-07
1.00765e-07
-8.49501e-10
2.1229e-07
-2.64116e-07
9.63087e-08
-2.56069e-07
-3.80825e-12
1.40422e-07
-5.7879e-08
-2.57808e-10
-3.13602e-08
2.69492e-08
-3.15091e-10
4.71917e-09
6.99228e-12
-2.28604e-08
1.01354e-07
1.35065e-11
3.55237e-10
3.2524e-08
4.60176e-10
-2.75381e-08
4.25986e-08
9.37961e-12
4.08659e-08
9.94273e-12
4.671e-09
3.04074e-08
-2.52968e-08
-3.98611e-10
7.14116e-12
1.03028e-08
-4.79199e-08
1.15827e-11
-7.00623e-08
4.83772e-10
-3.02838e-08
4.15633e-10
2.6011e-08
-7.456e-08
9.2417e-12
1.26313e-11
-7.2814e-08
-3.13039e-08
2.69169e-08
-3.06265e-10
4.70046e-09
-2.27674e-08
1.01267e-07
3.43716e-10
3.24034e-08
4.47819e-10
-2.74675e-08
4.25299e-08
4.0833e-08
4.62964e-09
3.03746e-08
-2.52771e-08
-3.8976e-10
1.03019e-08
-4.78525e-08
-7.00481e-08
4.72462e-10
-3.02099e-08
4.00942e-10
2.59691e-08
-7.43538e-08
-7.27159e-08
2.38796e-07
8.38882e-08
1.84046e-10
-1.69906e-07
-1.21849e-11
-1.38552e-07
-1.78102e-07
-2.89538e-11
2.9807e-10
-2.48398e-07
1.8534e-10
-8.7468e-08
-9.61244e-08
-1.47578e-11
-9.40158e-08
-1.31499e-11
-1.78008e-07
4.0169e-08
-1.0703e-07
4.16514e-10
-3.81998e-12
5.3921e-08
-2.52587e-08
5.39384e-13
-2.87208e-08
-7.6586e-11
-4.05293e-08
-3.35571e-10
1.12686e-07
-6.32017e-08
-3.05536e-12
-2.67178e-12
-5.99739e-08
2.38789e-07
8.38794e-08
1.58816e-10
-1.69898e-07
-1.38463e-07
-1.78097e-07
5.78513e-08
3.41909e-10
-2.48291e-07
2.21148e-10
-8.73516e-08
-9.60217e-08
-9.40102e-08
-1.77938e-07
4.01412e-08
-1.07029e-07
4.12117e-10
5.39426e-08
-2.52708e-08
-2.87359e-08
-6.9595e-11
-4.04437e-08
-3.44554e-10
1.12628e-07
-6.31861e-08
-5.99629e-08
1.16209e-07
1.21237e-07
-3.35435e-11
-1.04856e-11
-7.55133e-08
-1.36326e-07
1.33965e-11
4.66839e-10
-1.19668e-07
1.11987e-11
-1.22769e-07
2.61284e-11
5.44454e-13
-1.64665e-07
-2.65507e-10
-1.84296e-11
8.73461e-08
-1.20044e-12
9.47212e-10
1.70536e-07
-1.52214e-11
3.15158e-08
-1.34742e-10
4.5208e-08
-7.66089e-08
4.57418e-11
-3.21884e-08
3.21427e-08
3.15655e-08
4.67766e-08
-7.90992e-08
1.16104e-07
1.21224e-07
-4.36036e-11
-7.54192e-08
-1.36293e-07
4.37883e-10
-1.19458e-07
9.58583e-12
-1.22737e-07
-1.64596e-07
-2.85466e-10
8.73326e-08
-8.72195e-08
9.62814e-10
1.70385e-07
-2.00282e-07
-1.92772e-07
3.09456e-08
1.07282e-08
1.80117e-10
-4.12304e-09
-6.75661e-12
-1.42403e-08
-1.45611e-08
7.05811e-13
-2.48171e-10
-3.27587e-08
-5.75092e-11
-1.09398e-08
-4.03371e-09
-4.57887e-12
-3.89005e-09
-7.58811e-13
-4.70638e-09
5.6905e-09
1.28314e-08
1.12193e-10
-7.50614e-12
-1.76843e-09
1.76603e-09
4.90886e-13
-3.22927e-11
-5.82201e-09
-7.11322e-11
-1.29268e-08
2.88989e-08
-1.06822e-12
-4.35038e-12
2.86275e-08
3.09084e-08
1.07707e-08
1.85006e-10
-4.11168e-09
-1.41836e-08
-1.46413e-08
-2.55442e-10
-3.26743e-08
-6.2854e-11
-1.09799e-08
-4.08402e-09
-3.93474e-09
-4.67875e-09
5.75932e-09
1.28007e-08
1.15099e-10
-1.78885e-09
1.78558e-09
-3.40527e-11
-5.9042e-09
-8.04003e-11
-1.28766e-08
2.8799e-08
2.85585e-08
3.39988e-11
-1.37308e-07
-1.31899e-07
-1.61557e-13
4.01135e-11
1.25079e-07
1.20003e-07
8.9124e-14
1.66302e-07
-1.66268e-07
-3.39195e-11
-1.10112e-13
2.69762e-07
-2.68451e-07
-1.05183e-12
7.35703e-10
-1.70172e-07
-5.71684e-10
1.70206e-07
-9.95288e-13
-3.85758e-13
3.43042e-11
-1.3732e-07
1.37285e-07
-1.31903e-07
1.31937e-07
4.01407e-11
1.25081e-07
-1.25121e-07
1.2e-07
-1.1996e-07
1.66307e-07
-1.66273e-07
-3.4113e-11
2.69748e-07
-2.6844e-07
7.36643e-10
-1.70186e-07
-5.71295e-10
1.7022e-07
3.04071e-07
-2.37713e-07
2.69259e-10
1.4061e-07
-2.27915e-07
5.03641e-10
-3.1422e-07
-5.58638e-10
2.4262e-07
-3.49468e-08
1.06826e-10
4.28944e-08
-1.26525e-11
-7.29504e-11
3.57328e-08
-1.0078e-11
4.36678e-08
7.09584e-08
9.94411e-11
-2.2213e-11
-2.70182e-10
-7.3061e-08
9.75404e-08
-3.69967e-11
9.45726e-08
-3.48843e-08
1.00851e-10
4.27991e-08
-7.55354e-11
3.56081e-08
4.34812e-08
7.08247e-08
7.77923e-11
-2.19521e-10
-7.27336e-08
9.68085e-08
9.43166e-08
2.37948e-11
-1.23752e-07
-1.18388e-07
1.65623e-13
3.35985e-11
1.62086e-07
1.5521e-07
1.24143e-12
1.81634e-07
-1.81636e-07
1.94782e-12
3.48562e-13
2.99292e-07
-3.38464e-07
2.83415e-12
8.34397e-10
-1.86324e-07
-7.72975e-10
1.86323e-07