/*--------------------------------*- C++ -*----------------------------------*\
  =========                 |
  \\      /  F ield         | OpenFOAM: The Open Source CFD Toolbox
   \\    /   O peration     | Website:  https://openfoam.org
    \\  /    A nd           | Version:  7
     \\/     M anipulation  |
\*---------------------------------------------------------------------------*/
FoamFile
{
    version     2.0;
    format      ascii;
    class       volVectorField;
    location    "0.1";
    object      U;
}
// * * * * * * * * * * * * * * * * * * * * * * * * * * * * * * * * * * * * * //

dimensions      [0 1 -1 0 0 0 0];

internalField   nonuniform List<vector> 
1064
(
(0.568332 -0.0114908 0)
(0.621466 -0.0151607 0)
(0.633448 -0.0137872 0)
(0.669432 -0.0157374 1.32896e-21)
(0.70389 -0.0198549 -4.44479e-21)
(0.750415 -0.0239592 -7.99154e-21)
(0.805856 -0.0270953 0)
(0.866943 -0.0277305 -1.81613e-21)
(0.925514 -0.023369 9.99441e-21)
(0.966954 -0.0118133 5.76244e-21)
(0.977725 0.00396698 -5.76207e-21)
(0.952809 0.0199614 0)
(0.896727 0.0314276 1.71791e-20)
(0.824916 0.0344787 1.88794e-20)
(0.75493 0.0314562 0)
(0.697488 0.0245957 0)
(0.65908 0.0131616 -5.85837e-21)
(0.668095 -0.00884241 1.77249e-20)
(0.72229 -0.058358 3.5878e-21)
(0.647502 -0.108521 3.13167e-21)
(1.10803 -0.029439 2.38756e-22)
(1.11422 -0.0399576 -1.79407e-22)
(1.13464 -0.0449931 -2.58958e-21)
(1.18965 -0.0575693 8.8122e-21)
(1.2455 -0.0740259 1.65747e-20)
(1.32318 -0.0903325 1.11893e-20)
(1.41683 -0.103282 -3.16784e-20)
(1.52218 -0.107501 0)
(1.62709 -0.0931605 -1.01888e-20)
(1.70413 -0.0496358 0)
(1.72667 0.0122244 0)
(1.68525 0.0752099 0)
(1.58694 0.118656 -2.14146e-20)
(1.46226 0.127754 -7.01558e-20)
(1.34418 0.114301 -2.57387e-20)
(1.24694 0.0887094 -1.40577e-21)
(1.17308 0.051596 1.28867e-20)
(1.13943 -0.00707101 -5.5643e-22)
(1.12374 -0.111041 -8.19208e-21)
(0.898325 -0.188519 -7.81272e-22)
(1.16767 -0.0333819 0)
(1.14374 -0.0527536 1.54784e-21)
(1.17346 -0.0783642 -3.11831e-21)
(1.22512 -0.111059 -1.61153e-20)
(1.28246 -0.146449 2.47871e-20)
(1.36608 -0.181776 -2.9935e-20)
(1.47243 -0.211511 4.03828e-20)
(1.60193 -0.225788 1.68978e-20)
(1.74648 -0.201627 -5.63142e-21)
(1.86305 -0.105388 -8.48916e-21)
(1.90393 0.0187272 1.41219e-20)
(1.85179 0.146235 0)
(1.71682 0.246876 0)
(1.55459 0.260209 -4.6617e-20)
(1.41809 0.22759 -9.8715e-20)
(1.31506 0.177748 5.18563e-20)
(1.2371 0.117871 0)
(1.18843 0.0455813 -2.81272e-20)
(1.14723 -0.0447703 2.92266e-20)
(0.915581 -0.103016 0)
(1.12214 -0.0363811 0)
(1.10295 -0.0641154 -1.50289e-21)
(1.13256 -0.110024 5.70835e-21)
(1.18047 -0.162909 -1.32799e-20)
(1.23587 -0.220809 6.68896e-21)
(1.32216 -0.281999 -1.06319e-20)
(1.44061 -0.340256 1.14106e-20)
(1.60408 -0.385673 -4.85558e-20)
(1.82511 -0.383735 -5.42016e-20)
(1.99957 -0.245837 -1.38784e-20)
(2.05925 0.0216373 1.3885e-20)
(2.00071 0.303777 -7.25243e-20)
(1.80586 0.44168 -2.59403e-19)
(1.56069 0.42927 8.90892e-20)
(1.39511 0.352803 9.87179e-20)
(1.28942 0.268525 -1.03464e-19)
(1.21429 0.185943 5.36898e-20)
(1.16571 0.106051 -2.72841e-20)
(1.12462 0.0293194 -2.92268e-20)
(0.910003 -0.0261848 0)
(1.06665 -0.0421044 0)
(1.04764 -0.0771729 -8.34555e-22)
(1.07298 -0.138152 0)
(1.1133 -0.210449 1.1841e-20)
(1.16159 -0.293756 -1.58496e-20)
(1.2444 -0.389171 1.98436e-20)
(1.36674 -0.493758 0)
(1.55662 -0.620996 -5.00595e-20)
(1.84284 -0.634626 5.09453e-06)
(1.80351 -0.358189 4.12758e-05)
(1.9035 0.0164064 9.81958e-05)
(1.81339 0.41043 -3.84575e-05)
(1.81259 0.750674 -1.81358e-05)
(1.50434 0.679133 -3.64249e-21)
(1.31225 0.495437 1.0026e-19)
(1.21916 0.357307 5.16074e-20)
(1.15943 0.248492 -6.72791e-20)
(1.12397 0.161208 6.20098e-20)
(1.09681 0.0908084 3.32274e-21)
(0.901722 0.0250125 2.93988e-21)
(1.00252 -0.0459738 6.38494e-22)
(0.980778 -0.0863448 2.99967e-21)
(0.997354 -0.158244 1.95452e-21)
(1.02347 -0.246965 -1.0339e-20)
(1.05437 -0.355091 0)
(1.11832 -0.48723 -1.86912e-20)
(1.20571 -0.645545 1.87005e-20)
(1.39216 -0.771684 5.01408e-20)
(1.10726 -0.575423 8.96681e-07)
(1.12419 -0.384627 0.139444)
(1.00098 -0.0202134 0.213906)
(1.03146 0.317534 0.312958)
(1.0847 0.712981 -8.98863e-05)
(1.27003 0.856414 -7.5108e-06)
(1.11399 0.617203 -1.58785e-19)
(1.09252 0.416224 4.78493e-21)
(1.07495 0.286777 -5.27006e-20)
(1.06836 0.195916 -6.98128e-21)
(1.06588 0.130532 6.98126e-21)
(0.893022 0.0568924 1.21289e-20)
(0.934043 -0.0458453 -5.60113e-22)
(0.907301 -0.0880645 4.21659e-22)
(0.910654 -0.164786 0)
(0.915127 -0.263964 0)
(0.917584 -0.393505 0)
(0.947524 -0.566381 0)
(1.02351 -0.726434 6.18107e-07)
(0.761053 -0.558801 1.26773e-05)
(0.756829 -0.449956 0.0934504)
(0.381261 -0.147598 0.0919582)
(0.24028 -0.0521179 0.0920101)
(0.3096 0.132254 0.14099)
(0.597747 0.545625 0.421678)
(0.705162 0.663078 -1.60578e-05)
(0.876197 0.589717 7.88375e-20)
(0.922626 0.402009 -4.0331e-20)
(0.976143 0.279695 6.79232e-20)
(1.00815 0.198593 -3.51231e-21)
(1.03515 0.14278 3.51231e-21)
(0.884789 0.0698923 -2.43284e-20)
(0.868294 -0.0399991 0)
(0.834666 -0.0788301 0)
(0.820565 -0.151227 0)
(0.794469 -0.250478 -9.03052e-21)
(0.748605 -0.397419 -2.89677e-21)
(0.757042 -0.581349 -3.68339e-07)
(0.550702 -0.508722 -6.5836e-06)
(0.475757 -0.406751 0.059692)
(0.171856 -0.129336 0.034262)
(0.144182 0.267926 0.413819)
(0.439123 0.451909 -1.73796e-05)
(0.645103 0.416221 -5.59189e-20)
(0.800624 0.307663 1.72896e-21)
(0.895086 0.224738 -5.22249e-21)
(0.958907 0.168573 3.4935e-21)
(1.01048 0.12876 0)
(0.878266 0.0664943 1.21992e-20)
(0.814838 -0.0274383 3.59429e-22)
(0.773325 -0.0559404 -2.60662e-22)
(0.739302 -0.110844 0)
(0.670556 -0.191454 -2.72745e-21)
(0.582649 -0.314592 -9.77903e-21)
(0.412706 -0.382216 1.51478e-06)
(0.318168 -0.357235 0.0283448)
(0.109729 -0.141905 0.0162321)
(0.0516765 0.0766496 0.418182)
(0.336139 0.169622 -3.20287e-07)
(0.564615 0.202632 5.57921e-20)
(0.742106 0.172306 -2.78169e-20)
(0.851655 0.141292 -2.79735e-20)
(0.930669 0.11669 0)
(0.995972 0.0962193 0)
(0.874387 0.051679 0)
(0.784707 -0.0086706 -1.34011e-23)
(0.736522 -0.0200294 0)
(0.68616 -0.0441488 2.41268e-21)
(0.591684 -0.0855286 5.27254e-21)
(0.434679 -0.149117 -3.56746e-21)
(0.237491 -0.200853 8.41225e-08)
(0.0885532 -0.146857 -0.00992007)
(0.00461762 -0.0134156 -0.000764583)
(0.085575 -0.0575189 0.413364)
(0.39537 -0.0639608 -1.30177e-05)
(0.604896 -0.0029732 0)
(0.746814 0.0375162 5.58769e-20)
(0.848302 0.0527994 -4.216e-20)
(0.925581 0.0577166 1.41289e-20)
(0.992613 0.0558863 0)
(0.873389 0.0317534 0)
(0.786528 0.0142867 0)
(0.734252 0.0246506 0)
(0.675232 0.039814 -3.99305e-21)
(0.566681 0.0495111 1.10998e-20)
(0.384084 0.0483756 -7.5749e-21)
(0.146222 0.029397 5.67754e-07)
(0.0243605 -0.0136524 -0.0262093)
(0.0339401 -0.044421 0.127564)
(0.402619 -0.31984 -8.51105e-06)
(0.602066 -0.28071 -8.51315e-06)
(0.702668 -0.149722 0)
(0.803176 -0.0675742 -2.78468e-20)
(0.876132 -0.0217078 0)
(0.939675 0.00493475 -3.38678e-23)
(0.998721 0.0180125 4.51113e-21)
(0.874869 0.0127417 -7.48625e-22)
(0.824754 0.0386141 0)
(0.771565 0.072718 0)
(0.712375 0.131325 0)
(0.599791 0.1986 -5.35339e-22)
(0.406186 0.265639 2.12079e-21)
(0.143563 0.24566 -1.67182e-07)
(0.0191902 0.0823425 -0.0348479)
(0.0259612 -0.0225355 0.0674106)
(0.537954 -0.434063 -7.96694e-06)
(0.737315 -0.515558 7.90685e-06)
(0.768355 -0.360034 1.51254e-20)
(0.820448 -0.225158 -1.10025e-19)
(0.875691 -0.134218 -5.50198e-20)
(0.920443 -0.0733687 0)
(0.965545 -0.0335382 3.14038e-23)
(1.01111 -0.010001 -3.57519e-21)
(0.878062 -0.000803962 0)
(0.899452 0.0608122 -2.22283e-22)
(0.849446 0.117489 -1.63354e-21)
(0.800801 0.218979 6.92425e-21)
(0.698533 0.348224 -5.90214e-21)
(0.507467 0.495541 -1.44007e-20)
(0.243905 0.495377 -7.01343e-06)
(0.0379942 0.197252 -0.0519662)
(0.0537069 -0.0472364 0.13182)
(0.657425 -0.506998 -3.58446e-06)
(0.934128 -0.668196 7.87069e-06)
(0.911196 -0.525604 1.03568e-19)
(0.911607 -0.378443 -2.1062e-19)
(0.927395 -0.259245 2.4294e-19)
(0.950518 -0.168903 2.78255e-20)
(0.970835 -0.102175 0)
(0.997172 -0.054817 0)
(1.02701 -0.0241049 7.46823e-21)
(0.882281 -0.00606734 6.3995e-21)
(1.00537 0.0766038 0)
(0.964121 0.149705 0)
(0.94213 0.283578 1.89558e-21)
(0.876626 0.464494 -7.69236e-21)
(0.766626 0.68796 1.10336e-20)
(0.653476 0.808672 8.22062e-06)
(0.316115 0.454558 -0.0374088)
(0.24907 -0.162572 0.322701)
(0.853363 -0.599629 -1.73911e-05)
(1.17193 -0.786536 -5.35469e-21)
(1.10105 -0.647345 0)
(1.06011 -0.497078 2.02555e-19)
(1.03293 -0.370255 2.63532e-19)
(1.02207 -0.264347 -1.60344e-19)
(1.02091 -0.178726 0)
(1.02108 -0.110812 0)
(1.03047 -0.0589505 4.26535e-20)
(1.04455 -0.0226984 1.43498e-20)
(0.887068 -0.00152589 -1.23872e-20)
(1.12912 0.0820918 0)
(1.10052 0.159839 0)
(1.11676 0.302551 -1.11551e-21)
(1.10854 0.496327 1.42808e-20)
(1.21105 0.780909 1.63733e-20)
(1.17529 0.917384 5.16153e-05)
(1.01649 0.65136 0.0646057)
(0.965006 -0.0351467 0.243858)
(1.2469 -0.652801 1.10139e-06)
(1.55854 -0.853795 7.00504e-06)
(1.35034 -0.724438 1.82775e-19)
(1.26101 -0.568765 9.86028e-20)
(1.18446 -0.444477 -2.03465e-19)
(1.13336 -0.338312 1.02041e-19)
(1.10151 -0.247164 0)
(1.08206 -0.169312 0)
(1.0668 -0.102978 5.63514e-20)
(1.06259 -0.0478212 -5.70028e-20)
(1.0627 -0.00590991 1.51038e-20)
(0.892218 0.0136739 -1.21093e-20)
(1.2508 0.0762477 2.35929e-22)
(1.23284 0.144532 -3.12209e-21)
(1.28092 0.265779 4.67057e-21)
(1.36039 0.418806 2.41977e-21)
(1.51157 0.647151 0)
(1.90971 0.790003 2.16454e-05)
(2.01004 0.361789 -2.78891e-06)
(2.03306 -0.225248 -0.000137371)
(2.05997 -0.667632 -3.47146e-05)
(1.71562 -0.678922 -2.58381e-19)
(1.50824 -0.555066 8.44223e-20)
(1.37292 -0.457791 -9.24216e-20)
(1.27624 -0.368572 7.74764e-22)
(1.20832 -0.287342 -1.01302e-19)
(1.16165 -0.213588 0)
(1.12966 -0.146109 1.1116e-19)
(1.1042 -0.0833229 -1.12183e-19)
(1.09121 -0.0249746 0)
(1.08099 0.0247324 0)
(0.897729 0.0403711 0)
(1.35226 0.0633572 -2.36043e-22)
(1.33588 0.114045 5.22003e-21)
(1.39368 0.197981 -5.09813e-21)
(1.49048 0.291501 -2.00288e-20)
(1.63994 0.388795 5.76027e-20)
(1.91438 0.446353 -3.04301e-20)
(2.14308 0.248385 -3.59671e-20)
(2.16003 -0.178933 -3.72066e-20)
(1.98704 -0.392548 -1.72336e-19)
(1.74393 -0.416606 7.64879e-20)
(1.56437 -0.384786 8.56043e-20)
(1.43162 -0.335597 0)
(1.3305 -0.280314 -9.92211e-20)
(1.2545 -0.224323 0)
(1.19898 -0.169297 0)
(1.15948 -0.114458 -5.53286e-20)
(1.12904 -0.0574003 0)
(1.11356 0.00399049 -2.9818e-20)
(1.0992 0.0656876 4.65862e-20)
(0.903508 0.0798418 -1.25971e-20)
(1.42936 0.0527934 0)
(1.40603 0.0855758 3.58915e-21)
(1.46094 0.130788 -1.40516e-20)
(1.55252 0.18039 1.92369e-20)
(1.66794 0.219349 -7.25232e-20)
(1.83037 0.21367 7.27451e-20)
(1.96457 0.0916473 -6.80998e-20)
(1.97754 -0.0691127 2.68816e-20)
(1.87031 -0.200596 0)
(1.71735 -0.24448 4.06046e-20)
(1.57525 -0.242209 0)
(1.4539 -0.220208 0)
(1.35346 -0.18957 5.00509e-20)
(1.27303 -0.155311 0)
(1.21138 -0.118906 0)
(1.16688 -0.0789878 0)
(1.13514 -0.0313432 0)
(1.1243 0.0308276 1.44334e-20)
(1.11563 0.111801 -3.96747e-20)
(0.907433 0.140453 1.35698e-20)
(1.36844 0.0419438 2.06785e-22)
(1.38 0.0586578 2.69987e-21)
(1.41982 0.0705804 -2.69988e-21)
(1.50644 0.0888417 -5.3544e-21)
(1.5978 0.103239 1.14533e-22)
(1.70677 0.0958807 3.91609e-20)
(1.78638 0.0434183 -1.94493e-20)
(1.79319 -0.0329309 -1.34424e-20)
(1.72528 -0.0926015 -1.908e-20)
(1.61575 -0.117391 -4.19126e-20)
(1.49843 -0.119887 0)
(1.38834 -0.111252 0)
(1.29136 -0.0973799 -7.54255e-20)
(1.20987 -0.080925 0)
(1.14494 -0.0623225 -3.38124e-22)
(1.09759 -0.0397118 2.80212e-20)
(1.06753 -0.00761693 0)
(1.07204 0.0466044 -1.56631e-20)
(1.09054 0.145923 1.60334e-20)
(0.889516 0.207099 -7.03248e-21)
(0.709762 0.0155385 -1.55458e-22)
(0.777229 0.0210521 0)
(0.80095 0.020836 3.36182e-21)
(0.856225 0.0238094 -1.21533e-20)
(0.910241 0.0268827 1.57052e-20)
(0.969977 0.0241074 -6.167e-21)
(1.01173 0.010646 1.13717e-21)
(1.01556 -0.00808971 0)
(0.979714 -0.023492 3.86094e-21)
(0.91886 -0.0307139 2.11396e-20)
(0.850392 -0.0320289 -8.63651e-21)
(0.784467 -0.0301908 0)
(0.725634 -0.026846 2.03478e-20)
(0.675774 -0.0227392 -2.19153e-20)
(0.636018 -0.0179374 -2.76108e-22)
(0.608235 -0.0116633 0)
(0.596297 -0.00146058 1.23925e-20)
(0.628509 0.0194022 1.5396e-22)
(0.703721 0.0678477 3.75586e-21)
(0.642303 0.113672 -3.13341e-21)
(1.02169 0.0372565 0.260442)
(0.697964 -0.0840874 0.181241)
(0.709366 0.0601436 0.225464)
(1.00097 -0.0203459 -0.213695)
(1.0215 0.0363805 -0.260246)
(0.697538 -0.0853521 -0.180358)
(0.708573 0.0585627 -0.223745)
(0.586172 -0.291016 0.0948858)
(0.372265 -0.280017 0.0598085)
(0.0997162 -0.0551143 0.0415546)
(0.756797 -0.44994 -0.0934411)
(0.586052 -0.290982 -0.0948655)
(0.372211 -0.279939 -0.0597976)
(0.0997343 -0.055098 -0.0415312)
(0.314377 -0.127292 0.0724691)
(0.0551767 -0.0354301 0.0211949)
(0.381032 -0.147542 -0.0919501)
(0.313665 -0.127471 -0.0722646)
(0.0551701 -0.0353988 -0.0211888)
(0.271173 0.0545975 0.111143)
(0.239689 -0.0523954 -0.0914859)
(0.254604 0.0540462 -0.112206)
(0.409313 0.340451 0.359117)
(0.122072 0.199928 0.231722)
(0.310656 0.135418 -0.14527)
(0.408895 0.340346 -0.359377)
(0.122065 0.199836 -0.231725)
(0.294703 -0.250703 0.0521462)
(0.235125 -0.247424 0.0362611)
(0.475746 -0.406785 -0.0596928)
(0.294668 -0.250726 -0.0520856)
(0.23506 -0.247404 -0.0362887)
(0.0335709 -0.0193234 0.00935865)
(0.171859 -0.1293 -0.0342463)
(0.0335049 -0.0192791 -0.00933596)
(0.0641681 0.157642 0.235955)
(0.01933 0.0690381 0.243945)
(0.0642414 0.157547 -0.235908)
(0.0191972 0.0689748 -0.243694)
(0.213665 0.330787 0.468968)
(0.0710553 0.162098 0.417926)
(0.173017 0.238939 0.477526)
(0.144212 0.267903 -0.413766)
(0.213689 0.330794 -0.468967)
(0.0710126 0.162095 -0.417866)
(0.172982 0.238944 -0.477526)
(0.214092 -0.276745 0.0240417)
(0.186987 -0.257353 0.00940021)
(0.0796826 -0.146414 0.012509)
(0.31817 -0.35721 -0.0283433)
(0.214121 -0.276715 -0.0240427)
(0.186996 -0.257351 -0.00939537)
(0.0797736 -0.146457 -0.0125015)
(0.0145439 -0.0392462 0.00258797)
(0.109712 -0.141851 -0.0162429)
(0.0145409 -0.0392003 -0.00261621)
(0.00967556 0.0394177 0.237789)
(0.0223334 -0.0099486 0.249816)
(0.009608 0.0393614 -0.237762)
(0.0222817 -0.00994617 -0.249841)
(0.124119 0.109622 0.477329)
(0.0579212 0.00177466 0.425946)
(0.135472 0.0404832 0.478648)
(0.0516201 0.0766376 -0.418153)
(0.124086 0.109621 -0.477335)
(0.0578804 0.00176516 -0.425913)
(0.135448 0.0404768 -0.478644)
(0.0237399 -0.0555665 -0.00193902)
(0.0574897 -0.0976165 -0.0231829)
(0.00379934 -0.0142977 -0.0108417)
(0.0885024 -0.146839 0.00991556)
(0.0235666 -0.0554652 0.00196804)
(0.0574746 -0.0976043 0.0231622)
(0.00380109 -0.0142866 0.0108518)
(0.0045758 -0.0134279 0.000764565)
(0.0324892 -0.034112 0.246382)
(0.00951444 -0.0166964 0.0584429)
(0.0652276 -0.100358 0.406539)
(0.0324115 -0.0341138 -0.24634)
(0.00951323 -0.0166897 -0.0584451)
(0.0652667 -0.100351 -0.406501)
(0.00239257 -0.00803308 -0.0117383)
(0.0129766 0.0181064 -0.0289989)
(0.000270338 0.00186007 -0.00357909)
(0.0243754 -0.0136941 0.0261321)
(0.00240096 -0.00803722 0.0117397)
(0.0129897 0.0181193 0.0289128)
(0.000280384 0.00187123 0.00356799)
(0.108946 -0.111131 0.247225)
(0.108947 -0.11113 -0.247231)
(0.16702 -0.204924 0.441486)
(0.208957 -0.208744 0.407614)
(0.319861 -0.318385 0.491406)
(0.0339419 -0.0444135 -0.127556)
(0.167029 -0.20491 -0.441479)
(0.208956 -0.208739 -0.407604)
(0.319864 -0.318381 -0.491408)
(-0.00147947 0.0979266 -0.0417098)
(0.0191482 0.0822277 0.0348396)
(-0.00163015 0.0976751 0.0417206)
(0.136344 -0.116652 0.246299)
(0.136326 -0.11665 -0.246271)
(0.230696 -0.20986 0.401486)
(0.262731 -0.220133 0.403686)
(0.434773 -0.373963 0.470892)
(0.025962 -0.022536 -0.0674112)
(0.230696 -0.209859 -0.401481)
(0.262726 -0.220132 -0.403665)
(0.43477 -0.373961 -0.4709)
(0.00145454 0.0134254 -0.00789544)
(0.0821723 0.281351 -0.0421692)
(0.0153262 0.0666905 -0.0157597)
(0.037541 0.196687 0.0518591)
(0.00144083 0.013531 0.00790615)
(0.0820012 0.280778 0.0421392)
(0.0154058 0.0676632 0.0157036)
(0.0247843 -0.0195913 0.0438812)
(0.0656021 -0.0493483 0.0687938)
(0.18046 -0.122694 0.315156)
(0.0245978 -0.0195402 -0.0436111)
(0.0656404 -0.0493612 -0.0687887)
(0.180487 -0.122605 -0.314999)
(0.290613 -0.252014 0.416741)
(0.411781 -0.30466 0.377382)
(0.572958 -0.441897 0.457036)
(0.0536017 -0.0472614 -0.131829)
(0.290577 -0.252015 -0.416718)
(0.411809 -0.304662 -0.37739)
(0.57298 -0.441917 -0.457023)
(0.0298981 0.100872 -0.00611429)
(0.519573 0.569332 0.00719928)
(0.495381 0.272514 0.086625)
(0.315007 0.453954 0.0369891)
(0.0303449 0.102809 0.0054417)
(0.520482 0.56893 -0.00682233)
(0.492913 0.269522 -0.0830745)
(0.0685636 -0.062254 0.0701558)
(0.545749 0.0192327 0.0907643)
(0.418887 -0.226354 0.320528)
(0.0686435 -0.0623084 -0.0701517)
(0.544808 0.018615 -0.095496)
(0.420699 -0.226947 -0.321198)
(0.987219 -0.264376 0.162936)
(0.845907 -0.357107 0.103705)
(0.665103 -0.15912 0.129888)
(1.12406 -0.384678 -0.139417)
(0.987058 -0.264519 -0.162872)
(0.845728 -0.357167 -0.103664)
(0.664858 -0.15934 -0.129741)
(1.13814 0.502784 0.414239)
(0.720464 0.217153 0.274246)
(0.86407 0.526067 0.380505)
(1.03158 0.318722 -0.313073)
(1.13797 0.503204 -0.414358)
(0.720141 0.217717 -0.27488)
(0.863857 0.526835 -0.38089)
(0.234658 -0.0554697 0.000327675)
(0.225607 -0.0622702 0.079084)
(0.0809418 -0.0372125 0.0223976)
(0.214412 -0.0557719 -0.000111517)
(0.0778143 -0.0349884 0.000170408)
(0.209812 0.195908 0.000399664)
(0.304111 0.130714 -2.93002e-05)
(0.425151 0.278515 0.199938)
(0.13109 0.0849124 0.0477647)
(0.4085 0.269099 0.000234314)
(0.124397 0.0801195 -7.4383e-05)
(0.215304 0.198822 0.189074)
(0.656318 0.586899 0.4826)
(0.245129 0.334258 0.395669)
(0.391999 0.463747 0.451745)
(0.597749 0.545552 -0.421757)
(0.656324 0.58691 -0.482612)
(0.245146 0.334238 -0.395653)
(0.391991 0.463747 -0.451745)
(0.0373927 -0.0262861 3.91622e-05)
(0.164706 -0.124913 -2.99141e-05)
(0.101566 -0.0693193 0.0393305)
(0.0857287 -0.0647856 0.0205343)
(0.0991954 -0.0675569 0.000297562)
(0.0836065 -0.0637402 -0.000291974)
(0.0393173 -0.027722 0.0112228)
(0.0245436 -0.0339024 2.01118e-05)
(0.105901 -0.137361 4.79997e-05)
(0.05424 -0.074836 0.0168203)
(0.0519833 -0.0776027 0.00614668)
(0.0533726 -0.0731724 0.000199049)
(0.0512096 -0.0764174 -0.000196315)
(0.0255749 -0.0353131 0.0047661)
(0.0042173 -0.0126215 7.95626e-06)
(0.00692977 -0.0184053 4.35577e-05)
(0.0031274 -0.00791397 0.0477248)
(0.00300273 -0.00768595 3.90159e-05)
(0.00723405 -0.0188294 0.130852)
(0.16921 -0.0712611 0.470147)
(0.172387 -0.165833 0.461069)
(0.252469 -0.152478 0.523406)
(0.0855491 -0.0575306 -0.413313)
(0.169195 -0.0712698 -0.470153)
(0.172396 -0.165841 -0.461024)
(0.252468 -0.152484 -0.523386)
(0.0896781 -0.104229 -8.67263e-05)
(0.0326449 -0.0433472 -3.86488e-05)
(0.0588681 -0.0809291 0.223789)
(0.0498276 -0.0612659 0.202456)
(0.0565293 -0.0776005 0.000162997)
(0.0493509 -0.0597262 -0.000150962)
(0.0921862 -0.107885 0.250539)
(0.117335 -0.102564 -8.98125e-06)
(0.0248502 -0.0215198 -1.60575e-06)
(0.0583776 -0.0539539 0.204559)
(0.0612285 -0.0507115 0.199892)
(0.0572664 -0.0531761 0.000202444)
(0.060386 -0.0497923 -0.000204783)
(0.121626 -0.106361 0.23978)
(0.158971 -0.129217 8.79543e-05)
(0.0527447 -0.0453837 0.000153369)
(0.0817948 -0.0697059 0.227357)
(0.125303 -0.098676 0.184686)
(0.0795954 -0.0688561 0.000322919)
(0.120592 -0.0934426 -0.000256855)
(0.16409 -0.13389 0.237131)
(0.519928 -0.387823 0.385153)
(0.735638 -0.457466 0.378223)
(0.824032 -0.503282 0.423223)
(0.249354 -0.162662 -0.322767)
(0.520109 -0.387833 -0.385146)
(0.736503 -0.45744 -0.378328)
(0.824289 -0.503256 -0.423232)
(1.09095 -0.419907 0.35217)
(1.25007 -0.143861 0.264765)
(1.357 -0.385442 0.375181)
(0.965412 -0.0342707 -0.24577)
(1.09203 -0.420561 -0.352697)
(1.25027 -0.144326 -0.265045)
(1.35712 -0.385201 -0.37528)
(0.22525 -0.128634 -2.33459e-05)
(0.099186 -0.055015 8.80383e-05)
(0.201151 -0.105964 0.0606129)
(0.160405 -0.107344 0.0288048)
(0.192537 -0.0982995 0.000367715)
(0.152299 -0.102371 -0.000202216)
(0.234606 -0.132315 0.0478518)
(0.225237 -0.128624 2.17916e-05)
(0.099185 -0.0549998 -8.52096e-05)
(0.201131 -0.105915 -0.0605906)
(0.160369 -0.107317 -0.0288029)
(0.192513 -0.0982735 -0.000365869)
(0.152285 -0.102359 0.000201871)
(0.234589 -0.1323 -0.0478464)
(0.178107 -0.0841535 -0.000313737)
(0.302132 -0.119965 0.000179688)
(0.360398 -0.150834 0.0730677)
(0.133236 -0.0571479 0.0431763)
(0.345951 -0.147477 -0.000316424)
(0.130457 -0.0549592 -0.000216765)
(0.183877 -0.0847652 0.0568074)
(0.105899 -0.0547839 3.11113e-05)
(0.052654 -0.0333283 0.000173244)
(0.133177 -0.0495402 0.063484)
(0.129661 -0.0514771 0.000486385)
(0.109776 -0.0589593 0.0409386)
(0.0446673 -0.0225705 5.98368e-06)
(0.0474903 -0.0244314 0.0148872)
(0.177983 -0.0841203 0.000265032)
(0.301801 -0.119995 -0.000291538)
(0.359919 -0.150947 -0.0729875)
(0.132965 -0.0571495 -0.0430757)
(0.345736 -0.147504 0.000249325)
(0.130328 -0.0549491 0.000161331)
(0.183581 -0.0847113 -0.0567591)
(0.105856 -0.0547695 -3.99774e-05)
(0.0526436 -0.0333161 -0.000168454)
(0.133075 -0.049467 -0.0634772)
(0.129605 -0.0514475 -0.000489968)
(0.109701 -0.0589303 -0.0409346)
(0.0446421 -0.0225607 -1.41996e-05)
(0.047424 -0.0244098 -0.0148817)
(0.25517 0.0531987 4.41394e-05)
(0.216791 0.014716 0.0807665)
(0.216568 0.014384 -0.000552504)
(0.23445 -0.0555148 -0.000625985)
(0.219836 -0.0590349 -0.077017)
(0.0808023 -0.0371653 -0.0223524)
(0.211748 -0.0540115 -0.000128046)
(0.0777218 -0.0349487 -0.000199983)
(0.247495 0.0535303 -0.000288025)
(0.229408 0.0189376 -0.0717335)
(0.222019 0.016957 -0.000834426)
(0.0555579 0.0687134 7.77379e-06)
(0.0597249 0.0734389 0.0800423)
(0.135936 0.171759 -0.000278004)
(0.116037 0.191334 0.000127108)
(0.217196 0.265101 0.265178)
(0.0704989 0.115486 0.174889)
(0.209336 0.254711 -0.000317915)
(0.067039 0.111967 -0.000174286)
(0.1367 0.177165 0.250667)
(0.209641 0.195603 -0.000427388)
(0.30436 0.132495 0.000826055)
(0.423728 0.278388 -0.200832)
(0.129876 0.0837013 -0.0479508)
(0.407709 0.269244 -6.39227e-05)
(0.123791 0.0796178 5.79336e-05)
(0.214849 0.198216 -0.189282)
(0.0555159 0.0686737 4.76567e-06)
(0.0596654 0.0733715 -0.0799962)
(0.135878 0.171678 0.000298331)
(0.116033 0.191294 -0.000118022)
(0.217099 0.264994 -0.265107)
(0.0704814 0.115402 -0.174903)
(0.209272 0.254634 0.000330307)
(0.0670252 0.111932 0.000181616)
(0.136544 0.177033 -0.250493)
(0.0924183 -0.0835258 -1.61916e-05)
(0.0611151 -0.0456868 0.0163424)
(0.0513393 -0.0539244 0.00909756)
(0.0588972 -0.0429069 -2.53482e-05)
(0.04857 -0.0521597 -3.07196e-05)
(0.0935315 -0.0845907 0.0240635)
(0.0923942 -0.083501 -8.31389e-06)
(0.0610691 -0.0457522 -0.0162456)
(0.0512335 -0.0539028 -0.00913032)
(0.0588649 -0.0429414 1.24308e-05)
(0.0485267 -0.0521618 3.19962e-05)
(0.0934304 -0.0845277 -0.0240453)
(0.0322462 -0.0183157 3.95041e-05)
(0.0578548 -0.0321695 0.021931)
(0.0556524 -0.0298807 -6.84252e-05)
(0.0169559 -0.0126768 0.00456772)
(0.0158633 -0.011731 -2.31095e-05)
(0.0373918 -0.0262501 -1.63557e-05)
(0.164714 -0.124907 2.94995e-05)
(0.101457 -0.069138 -0.0393414)
(0.0858297 -0.0648421 -0.0205028)
(0.0991482 -0.0674747 -0.000275603)
(0.0836538 -0.0637722 0.000291991)
(0.0393085 -0.027639 -0.0112192)
(0.0322222 -0.0182933 -3.68555e-05)
(0.0577918 -0.0321159 -0.0219111)
(0.0556293 -0.0298551 6.80465e-05)
(0.0168696 -0.0126474 -0.00453111)
(0.0158198 -0.0117223 1.03907e-05)
(0.0113246 0.056014 3.23813e-05)
(0.0637213 0.150808 0.000271744)
(0.0325132 0.0836328 0.156386)
(0.0499335 0.126892 0.24068)
(0.0314792 0.0819445 9.01345e-05)
(0.0472332 0.120996 0.000211507)
(0.0114173 0.0575418 0.154619)
(0.0081615 0.0379752 0.00013258)
(0.018139 0.0658432 0.000183177)
(0.0197835 0.0877062 0.243559)
(0.00256374 0.0257931 0.157165)
(0.0202694 0.0839143 0.000207051)
(0.00267396 0.0250527 0.000125034)
(0.00843559 0.0390059 0.155997)
(0.0113543 0.0559759 -8.09572e-05)
(0.0637581 0.15076 -0.00028239)
(0.0325347 0.0835112 -0.156402)
(0.050061 0.12686 -0.240409)
(0.0314876 0.0818872 -0.000106175)
(0.047299 0.120981 -0.000234884)
(0.011484 0.0574667 -0.154197)
(0.00816186 0.0379674 -0.000134641)
(0.0180756 0.0658132 -0.000152017)
(0.0197766 0.087709 -0.243067)
(0.00250215 0.0257226 -0.156733)
(0.0202593 0.0839159 -0.000200976)
(0.00264574 0.0250177 -8.7163e-05)
(0.00843563 0.0389964 -0.155248)
(0.0189371 -0.0258592 0.00331583)
(0.0177387 -0.0244705 -5.83618e-06)
(0.0136687 -0.0382953 -1.18079e-05)
(0.0272544 -0.0552424 0.00491295)
(0.0260638 -0.0528906 -6.52832e-05)
(0.0245379 -0.0338934 -1.84767e-05)
(0.10588 -0.137332 -4.50142e-05)
(0.0542214 -0.0748041 -0.016826)
(0.0519811 -0.0775376 -0.00616347)
(0.0533662 -0.0731581 -0.000200772)
(0.051202 -0.0763913 0.000209837)
(0.0255634 -0.0352916 -0.00476837)
(0.0189235 -0.0258498 -0.00331479)
(0.0177348 -0.0244705 4.6662e-06)
(0.0136646 -0.0382767 4.64262e-05)
(0.0272589 -0.0551259 -0.00494337)
(0.0260641 -0.0528595 8.99959e-05)
(0.00296487 0.00626214 0.000119361)
(0.0101902 0.0378443 0.000163803)
(0.00399583 0.0160609 0.153957)
(0.0144476 0.0262397 0.240061)
(0.00393112 0.0155999 0.000138352)
(0.0139509 0.0249494 0.000151586)
(0.00290053 0.00645523 0.157707)
(0.00557446 -0.00227918 0.0001346)
(0.0220969 -0.00964338 0.000145364)
(0.0145569 0.00178225 0.246223)
(0.0100586 -0.0126265 0.192515)
(0.0146356 0.00186627 0.000151627)
(0.0099749 -0.0122246 0.000130583)
(0.00562231 -0.00236675 0.170934)
(0.00295865 0.00624996 -0.000110495)
(0.0101588 0.0378174 -0.000149049)
(0.0039718 0.0159943 -0.153903)
(0.0144033 0.0262058 -0.240025)
(0.0039208 0.0155682 -0.000126512)
(0.0139311 0.0249335 -0.000140517)
(0.00288462 0.00642829 -0.157639)
(0.0055683 -0.00227994 -0.000126713)
(0.0220745 -0.00964185 -0.000133798)
(0.0145217 0.00177288 -0.246233)
(0.0100126 -0.0126048 -0.192559)
(0.0146206 0.00186228 -0.000142084)
(0.00995478 -0.012214 -0.000118118)
(0.00560708 -0.00236865 -0.170963)
(0.0335011 -0.0627113 -5.95386e-05)
(0.0235076 -0.0537218 0.000113649)
(0.0546379 -0.0927312 -0.0034405)
(0.0156022 -0.03496 -0.00606067)
(0.0530748 -0.089112 8.26704e-05)
(0.0150601 -0.0339796 5.03369e-05)
(0.0354243 -0.0657576 -0.00890298)
(0.0167507 -0.0400302 -0.000127588)
(0.00373258 -0.013895 -2.00237e-05)
(0.00888094 -0.023288 -0.00874207)
(0.0121341 -0.0295201 -0.0174011)
(0.00861731 -0.0227713 -2.62324e-05)
(0.0114348 -0.0279759 -0.000107299)
(0.0170713 -0.041929 -0.0144499)
(0.0334834 -0.0627049 4.30124e-05)
(0.02347 -0.0537049 -0.000152229)
(0.054513 -0.0927089 0.00346184)
(0.0155532 -0.0349212 0.00608335)
(0.0530445 -0.0891135 -0.000105119)
(0.0150536 -0.0339768 -6.86326e-05)
(0.035365 -0.0657306 0.00892116)
(0.0167443 -0.0400223 0.000123055)
(0.00373447 -0.0138965 2.27573e-05)
(0.00887257 -0.0232575 0.00875248)
(0.0121371 -0.0295013 0.017401)
(0.00861647 -0.0227665 2.20491e-05)
(0.0114321 -0.0279684 0.000106624)
(0.0170501 -0.0418924 0.0144576)
(0.00420899 -0.0126281 -2.07567e-05)
(0.0286289 -0.048202 1.05638e-05)
(0.0317109 -0.0326486 0.000110733)
(0.0126606 -0.0230822 0.216573)
(0.046604 -0.0549354 0.267391)
(0.0125192 -0.0226818 0.000129466)
(0.0463491 -0.0531528 3.93082e-06)
(0.0292969 -0.0499714 0.230248)
(0.0177236 -0.034687 7.49018e-05)
(0.00907498 -0.0162709 5.57667e-05)
(0.0262015 -0.0472668 0.254348)
(0.0264489 -0.04612 0.000217359)
(0.0187656 -0.0361538 0.197)
(0.00693189 -0.0183886 -6.3421e-05)
(0.0030839 -0.00788811 -0.0472411)
(0.00298167 -0.0076737 -2.8693e-05)
(0.00724158 -0.0187979 -0.129923)
(0.0286476 -0.0481984 -1.73232e-05)
(0.0316753 -0.0326511 -9.69993e-05)
(0.012565 -0.0230433 -0.216177)
(0.0466087 -0.0549539 -0.267274)
(0.012472 -0.0226625 -0.000105609)
(0.0463527 -0.0531623 -2.80014e-06)
(0.0293344 -0.0499615 -0.229899)
(0.0177246 -0.0346548 -9.16382e-05)
(0.00907403 -0.0162675 -5.76191e-05)
(0.026201 -0.0472337 -0.254362)
(0.0264476 -0.0461041 -0.00022822)
(0.0187694 -0.0360848 -0.196992)
(0.00382766 -0.00760118 -7.68625e-05)
(0.00231541 -0.00780588 -2.91348e-05)
(0.00566582 -0.0141929 -0.0181815)
(0.00105417 -0.00339955 -0.0117245)
(0.00561689 -0.0135037 -8.69394e-05)
(0.00102822 -0.00328187 -2.49652e-05)
(0.00396416 -0.00812264 -0.0184387)
(0.00224505 0.00432704 -5.6012e-05)
(0.000252236 0.00176566 -1.15105e-06)
(0.000431859 -0.000408595 -0.00993966)
(-5.70281e-06 0.00542011 -0.018589)
(0.000410798 -0.000371699 -1.83687e-05)
(7.56977e-05 0.00544312 -2.56372e-05)
(0.00231326 0.00443931 -0.0184168)
(0.0038316 -0.00760858 5.90213e-05)
(0.0023197 -0.00781057 3.26355e-05)
(0.0056749 -0.0142043 0.018166)
(0.00106026 -0.00341788 0.0117134)
(0.00561558 -0.0135125 8.0683e-05)
(0.00103346 -0.00329485 2.38219e-05)
(0.00398491 -0.008139 0.0183962)
(0.00225184 0.00432929 3.63462e-05)
(0.00025797 0.00177312 3.0963e-06)
(0.000437961 -0.000408253 0.0098991)
(1.98602e-05 0.00541521 0.0185062)
(0.000415899 -0.000375722 1.52011e-05)
(8.35724e-05 0.0054411 2.00735e-05)
(0.00233455 0.0044468 0.0183536)
(0.0207723 -0.0238273 0.0747912)
(0.0193807 -0.0221995 1.76298e-05)
(0.0205441 -0.0188848 0.0675853)
(0.019143 -0.0174952 2.05746e-05)
(0.0225518 -0.0223583 1.55829e-05)
(0.10544 -0.106928 1.13013e-05)
(0.0576973 -0.0575878 0.216301)
(0.0574926 -0.0581623 0.208235)
(0.0565376 -0.0567849 0.00020744)
(0.0566862 -0.0570248 -0.000156217)
(0.0235253 -0.0234175 0.0708384)
(0.0207733 -0.0238277 -0.0748013)
(0.019381 -0.0221992 -1.791e-05)
(0.020545 -0.0188851 -0.0675915)
(0.0191429 -0.0174948 -2.04958e-05)
(0.0225525 -0.0223587 -1.5843e-05)
(0.10544 -0.106926 -1.22494e-05)
(0.0576971 -0.0575884 -0.216309)
(0.0574917 -0.0581628 -0.20826)
(0.0565371 -0.0567848 -0.000208361)
(0.056685 -0.0570242 0.000155767)
(0.023527 -0.0234193 -0.070845)
(0.0896779 -0.104225 8.44731e-05)
(0.0326454 -0.0433437 3.65355e-05)
(0.0588702 -0.0809078 -0.223772)
(0.0498247 -0.0612564 -0.202442)
(0.0565298 -0.077591 -0.000167078)
(0.04935 -0.0597227 0.000149483)
(0.092187 -0.107875 -0.250538)
(-0.00221884 0.0104935 -3.96235e-05)
(-0.000207105 0.0116549 -0.018974)
(-0.000415075 0.0113598 -2.60576e-05)
(-0.00240254 0.0106333 -0.019053)
(0.00440031 0.0183608 -4.0115e-05)
(0.00143937 0.0209967 -0.0284742)
(0.00166897 0.0203122 -9.39824e-05)
(0.00483137 0.0189052 -0.0222007)
(-0.00221821 0.0104702 2.8793e-05)
(-0.000201465 0.0116101 0.0189947)
(-0.000411527 0.0113346 2.00173e-05)