/*--------------------------------*- C++ -*----------------------------------*\
  =========                 |
  \\      /  F ield         | OpenFOAM: The Open Source CFD Toolbox
   \\    /   O peration     | Website:  https://openfoam.org
    \\  /    A nd           | Version:  7
     \\/     M anipulation  |
\*---------------------------------------------------------------------------*/
FoamFile
{
    version     2.0;
    format      ascii;
    class       volScalarField;
    location    "0.1";
    object      p;
}
// * * * * * * * * * * * * * * * * * * * * * * * * * * * * * * * * * * * * * //

dimensions      [0 2 -2 0 0 0 0];

internalField   nonuniform List<scalar> 
400
(
-0.0115898
-0.0347824
-0.0580654
-0.0813446
-0.10467
-0.128188
-0.151945
-0.176012
-0.200522
-0.225654
-0.251656
-0.278898
-0.307882
-0.339563
-0.374622
-0.417101
-0.46408
-0.539952
-0.614336
-0.849823
-0.0115561
-0.0347196
-0.0580122
-0.0812556
-0.104529
-0.128013
-0.15172
-0.175701
-0.200086
-0.225038
-0.250771
-0.277621
-0.305946
-0.336773
-0.369691
-0.410409
-0.448659
-0.513958
-0.563309
-0.606181
-0.0115213
-0.0346322
-0.0578706
-0.0810268
-0.104201
-0.127572
-0.15112
-0.174872
-0.198932
-0.223422
-0.248485
-0.274361
-0.301191
-0.329795
-0.358842
-0.393878
-0.420503
-0.468416
-0.481303
-0.491226
-0.0114834
-0.0345206
-0.0576719
-0.0807158
-0.103751
-0.126949
-0.150261
-0.173685
-0.197287
-0.221136
-0.245293
-0.269877
-0.294827
-0.320686
-0.345597
-0.37463
-0.392298
-0.428037
-0.426518
-0.424526
-0.0114415
-0.0343912
-0.0574402
-0.0803564
-0.103231
-0.126223
-0.14926
-0.172306
-0.19539
-0.218522
-0.241688
-0.2649
-0.287949
-0.311173
-0.332471
-0.356638
-0.368216
-0.396802
-0.388668
-0.383624
-0.0113979
-0.0342561
-0.0571987
-0.0799834
-0.102692
-0.125469
-0.148221
-0.170883
-0.193446
-0.215871
-0.238081
-0.260005
-0.281334
-0.302295
-0.320717
-0.341285
-0.348823
-0.373213
-0.361549
-0.356343
-0.0113568
-0.0341286
-0.0569714
-0.0796329
-0.102186
-0.124762
-0.147248
-0.169555
-0.191642
-0.213434
-0.234809
-0.255637
-0.275544
-0.294703
-0.310959
-0.32899
-0.333887
-0.355792
-0.342185
-0.33743
-0.011322
-0.0340213
-0.0567801
-0.0793377
-0.10176
-0.124167
-0.146433
-0.168446
-0.190143
-0.211421
-0.232131
-0.252111
-0.270948
-0.28879
-0.303515
-0.319834
-0.323052
-0.3435
-0.328807
-0.324498
-0.0112971
-0.0339451
-0.0566436
-0.0791256
-0.101453
-0.123739
-0.145847
-0.167653
-0.189075
-0.209995
-0.230244
-0.249644
-0.26777
-0.284761
-0.29852
-0.313783
-0.316006
-0.335642
-0.320364
-0.316364
-0.0112845
-0.0339077
-0.0565754
-0.0790167
-0.101293
-0.123517
-0.145543
-0.16724
-0.18852
-0.209257
-0.229274
-0.248379
-0.266145
-0.282719
-0.296016
-0.310778
-0.312534
-0.331805
-0.31627
-0.312422
-0.0112855
-0.0339134
-0.0565823
-0.0790211
-0.101296
-0.123519
-0.145545
-0.167242
-0.18852
-0.209256
-0.229275
-0.24838
-0.266141
-0.282713
-0.296015
-0.310778
-0.312528
-0.331798
-0.316263
-0.31241
-0.0113003
-0.0339622
-0.0566644
-0.0791387
-0.101461
-0.123747
-0.145856
-0.16766
-0.189075
-0.209991
-0.230245
-0.249646
-0.267759
-0.284745
-0.298516
-0.313778
-0.315987
-0.33562
-0.320342
-0.316329
-0.0113276
-0.0340506
-0.0568149
-0.079359
-0.101772
-0.124179
-0.146447
-0.168459
-0.190146
-0.211414
-0.232127
-0.252111
-0.270936
-0.288772
-0.303506
-0.319819
-0.32302
-0.343466
-0.32877
-0.324442
-0.0113649
-0.0341708
-0.0570203
-0.0796622
-0.102202
-0.124777
-0.147267
-0.169574
-0.191647
-0.213423
-0.234799
-0.255639
-0.275538
-0.294683
-0.31094
-0.328963
-0.333848
-0.355749
-0.342134
-0.337355
-0.0114095
-0.0343107
-0.0572609
-0.0800202
-0.102711
-0.125486
-0.148242
-0.170904
-0.193453
-0.21586
-0.238072
-0.260012
-0.28133
-0.302266
-0.320685
-0.341254
-0.348782
-0.373162
-0.361485
-0.356252
-0.0114543
-0.034455
-0.0575128
-0.0803993
-0.103253
-0.12624
-0.149281
-0.172329
-0.1954
-0.218514
-0.24168
-0.264906
-0.28794
-0.311138
-0.33244
-0.35661
-0.368172
-0.39674
-0.388595
-0.383523
-0.0114966
-0.0345889
-0.0577506
-0.080763
-0.103775
-0.126967
-0.150283
-0.173709
-0.1973
-0.221128
-0.245281
-0.269878
-0.294818
-0.320658
-0.34557
-0.3746
-0.392248
-0.427967
-0.426442
-0.424423
-0.0115333
-0.0346989
-0.05795
-0.0810762
-0.104226
-0.127591
-0.151143
-0.174897
-0.198945
-0.223413
-0.24847
-0.27436
-0.301187
-0.329773
-0.358812
-0.393838
-0.42045
-0.468347
-0.481224
-0.491125
-0.0115647
-0.0347774
-0.0580859
-0.0813053
-0.104557
-0.128033
-0.151743
-0.175727
-0.2001
-0.225029
-0.250753
-0.277618
-0.305944
-0.336753
-0.369659
-0.410365
-0.448609
-0.513899
-0.563225
-0.606069
-0.0116019
-0.0348304
-0.0581268
-0.0813914
-0.104702
-0.128214
-0.151972
-0.176037
-0.200532
-0.225644
-0.251643
-0.278898
-0.307878
-0.339537
-0.374588
-0.417066
-0.464035
-0.53989
-0.614256
-0.849729
)
;

boundaryField
{
    movingWall
    {
        type            zeroGradient;
    }
    fixedWalls
    {
        type            zeroGradient;
    }
    frontAndBack
    {
        type            empty;
    }
    right
    {
        type            fixedValue;
        value           uniform 0;
    }
    left
    {
        type            zeroGradient;
    }
}


// ************************************************************************* //
