/*--------------------------------*- C++ -*----------------------------------*\
  =========                 |
  \\      /  F ield         | OpenFOAM: The Open Source CFD Toolbox
   \\    /   O peration     | Website:  https://openfoam.org
    \\  /    A nd           | Version:  7
     \\/     M anipulation  |
\*---------------------------------------------------------------------------*/
FoamFile
{
    version     2.0;
    format      ascii;
    class       surfaceScalarField;
    location    "0.1";
    object      phi;
}
// * * * * * * * * * * * * * * * * * * * * * * * * * * * * * * * * * * * * * //

dimensions      [0 3 -1 0 0 0 0];

internalField   nonuniform List<scalar> 
760
(
0.00286088
7.72606e-08
0.00286074
1.40618e-07
0.00286062
1.19733e-07
0.00286093
-3.08653e-07
0.00286181
-8.73241e-07
0.00286316
-1.3561e-06
0.00286509
-1.9255e-06
0.0028678
-2.71386e-06
0.00287161
-3.80563e-06
0.00287695
-5.33932e-06
0.00288449
-7.54783e-06
0.00289523
-1.0735e-05
0.00291085
-1.56166e-05
0.00293333
-2.24873e-05
0.00296915
-3.58154e-05
0.00302018
-5.10337e-05
0.00311691
-9.67281e-05
0.00329208
-0.000175175
0.00345573
-0.000163649
-0.00154427
0.00484948
1.81622e-08
0.00484967
-4.19875e-08
0.00485009
-3.0369e-07
0.00485078
-9.97165e-07
0.00485179
-1.88624e-06
0.00485331
-2.86936e-06
0.00485548
-4.09622e-06
0.00485852
-5.75621e-06
0.00486275
-8.04189e-06
0.00486865
-1.12362e-05
0.00487689
-1.57827e-05
0.00488846
-2.23056e-05
0.00490479
-3.19501e-05
0.00492825
-4.59514e-05
0.00496138
-6.89427e-05
0.00501212
-0.000101774
0.00507724
-0.000161842
0.00517979
-0.000277734
0.00530387
-0.000287721
-0.0012404
0.00523665
-9.2301e-08
0.00523693
-3.1913e-07
0.00523743
-8.03077e-07
0.00523806
-1.62737e-06
0.00523889
-2.71586e-06
0.00524007
-4.05202e-06
0.00524175
-5.7764e-06
0.00524409
-8.09549e-06
0.00524732
-1.12668e-05
0.00525174
-1.56585e-05
0.00525777
-2.18174e-05
0.00526599
-3.05243e-05
0.00527703
-4.29867e-05
0.00529189
-6.08133e-05
0.00531022
-8.72664e-05
0.00533398
-0.000125534
0.00535361
-0.000181477
0.0053529
-0.000277027
0.00536528
-0.000300094
-0.000875122
0.00528982
-1.78153e-07
0.00529001
-5.07428e-07
0.00529033
-1.12594e-06
0.00529075
-2.0427e-06
0.00529128
-3.25168e-06
0.00529202
-4.79469e-06
0.00529306
-6.81105e-06
0.00529447
-9.5114e-06
0.00529639
-1.31789e-05
0.00529894
-1.82077e-05
0.00530227
-2.51476e-05
0.0053065
-3.47531e-05
0.00531159
-4.80857e-05
0.00531738
-6.65968e-05
0.00532239
-9.22808e-05
0.00532464
-0.000127784
0.00531702
-0.000173858
0.00528392
-0.000243924
0.0052464
-0.000262579
-0.000628717
0.00529501
-2.21996e-07
0.0052951
-5.91357e-07
0.00529523
-1.26033e-06
0.00529539
-2.2067e-06
0.00529559
-3.44634e-06
0.00529584
-5.04614e-06
0.00529617
-7.14016e-06
0.00529658
-9.92733e-06
0.00529709
-1.36838e-05
0.00529767
-1.87867e-05
0.00529825
-2.57276e-05
0.00529863
-3.51359e-05
0.00529836
-4.78134e-05
0.00529663
-6.48682e-05
0.00529176
-8.74053e-05
0.00528093
-0.000116955
0.00525968
-0.000152615
0.00521792
-0.000202158
0.00516769
-0.000212352
-0.000461027
0.00529477
-2.31867e-07
0.00529477
-5.89375e-07
0.00529474
-1.23094e-06
0.00529466
-2.12331e-06
0.0052945
-3.28671e-06
0.00529424
-4.79139e-06
0.00529386
-6.75772e-06
0.00529329
-9.35816e-06
0.00529244
-1.28304e-05
0.00529115
-1.74984e-05
0.00528919
-2.37716e-05
0.00528619
-3.21304e-05
0.00528149
-4.31123e-05
0.0052741
-5.7485e-05
0.00526246
-7.57659e-05
0.00524417
-9.86597e-05
0.00521647
-0.00012492
0.00517344
-0.000159122
0.00512425
-0.000163165
-0.000336777
0.00529404
-2.19169e-07
0.00529397
-5.21412e-07
0.0052938
-1.06463e-06
0.0052935
-1.81824e-06
0.00529301
-2.79825e-06
0.00529228
-4.06483e-06
0.00529124
-5.71656e-06
0.00528977
-7.89036e-06
0.00528772
-1.07734e-05
0.00528483
-1.46138e-05
0.00528077
-1.97099e-05
0.00527504
-2.6403e-05
0.00526696
-3.503e-05
0.00525555
-4.60765e-05
0.00523953
-5.97387e-05
0.00521712
-7.62572e-05
0.00518671
-9.45088e-05
0.00514487
-0.000117284
0.00509964
-0.000117936
-0.000237132
0.00529336
-1.93292e-07
0.00529325
-4.04097e-07
0.00529297
-7.89954e-07
0.00529249
-1.33294e-06
0.00529173
-2.04018e-06
0.00529062
-2.95166e-06
0.00528904
-4.13583e-06
0.00528683
-5.68967e-06
0.0052838
-7.74224e-06
0.00527965
-1.04609e-05
0.00527398
-1.40403e-05
0.00526626
-1.86826e-05
0.00525581
-2.45805e-05
0.00524176
-3.2025e-05
0.00522305
-4.10329e-05
0.00519847
-5.16685e-05
0.0051671
-6.3139e-05
0.00512691
-7.71019e-05
0.00508532
-7.63399e-05
-0.000151814
0.00529287
-1.5942e-07
0.00529272
-2.53105e-07
0.00529237
-4.38522e-07
0.00529175
-7.17707e-07
0.0052908
-1.08766e-06
0.00528941
-1.56388e-06
0.00528745
-2.17869e-06
0.00528475
-2.98125e-06
0.00528104
-4.04071e-06
0.00527603
-5.44857e-06
0.00526928
-7.29062e-06
0.00526025
-9.65446e-06
0.00524831
-1.26324e-05
0.00523267
-1.63851e-05
0.00521248
-2.0846e-05
0.00518682
-2.60122e-05
0.00515522
-3.15314e-05
0.00511636
-3.82424e-05
0.00507727
-3.72586e-05
-7.45398e-05
0.00529261
-1.22087e-07
0.00529245
-8.51865e-08
0.00529205
-4.73172e-08
0.00529137
-3.4817e-08
0.00529032
-3.29751e-08
0.00528878
-3.0849e-08
0.00528663
-2.45283e-08
0.00528366
-1.1499e-08
0.00527962
4.57918e-10
0.00527417
-2.07309e-09
0.00526689
-1.10479e-08
0.00525723
8.10606e-09
0.00524455
4.50954e-08
0.00522816
1.18404e-08
0.00520731
-1.3036e-09
0.00518124
5.6831e-08
0.00514963
8.39531e-08
0.00511147
-8.19581e-08
0.00507365
5.60512e-07
-8.92164e-07
0.00529262
-8.72516e-08
0.00529246
8.16618e-08
0.00529207
3.43788e-07
0.00529138
6.49261e-07
0.00529032
1.0245e-06
0.00528879
1.50387e-06
0.00528664
2.12809e-06
0.00528367
2.95311e-06
0.00527963
4.04111e-06
0.00527417
5.45455e-06
0.00526689
7.27698e-06
0.00525724
9.65687e-06
0.00524458
1.27054e-05
0.00522817
1.64187e-05
0.00520731
2.0864e-05
0.00518125
2.61139e-05
0.00514965
3.16863e-05
0.00511148
3.80859e-05
0.00507368
3.83568e-05
7.27898e-05
0.0052929
-5.9113e-08
0.00529275
2.3264e-07
0.0052924
6.96778e-07
0.00529178
1.26691e-06
0.00529082
1.9811e-06
0.00528943
2.89651e-06
0.00528747
4.08685e-06
0.00528477
5.65822e-06
0.00528107
7.74031e-06
0.00527605
1.04745e-05
0.00526929
1.40322e-05
0.00526028
1.86684e-05
0.00524835
2.46399e-05
0.00523269
3.20799e-05
0.00521248
4.10672e-05
0.00518685
5.17417e-05
0.00515527
6.32713e-05
0.00511639
7.69662e-05
0.00507737
7.73735e-05
0.000150162
0.00529342
-3.30716e-08
0.0052933
3.5423e-07
0.00529302
9.76465e-07
0.00529253
1.75622e-06
0.00529177
2.74461e-06
0.00529065
4.01521e-06
0.00528907
5.66832e-06
0.00528687
7.85444e-06
0.00528385
1.07671e-05
0.00527969
1.46309e-05
0.00527401
1.97148e-05
0.00526629
2.63883e-05
0.00525585
3.50766e-05
0.00524179
4.61353e-05
0.00522309
5.97698e-05
0.00519852
7.63098e-05
0.00516717
9.46296e-05
0.00512696
0.000117168
0.00508547
0.000118865
0.000235635
0.00529413
-3.10227e-09
0.00529405
4.36699e-07
0.00529388
1.15111e-06
0.00529357
2.06698e-06
0.00529307
3.23856e-06
0.00529234
4.74757e-06
0.00529129
6.71483e-06
0.00528982
9.32495e-06
0.00528776
1.2826e-05
0.00528487
1.75219e-05
0.0052808
2.37848e-05
0.00527508
3.21152e-05
0.00526701
4.31392e-05
0.00525562
5.75274e-05
0.0052396
7.57957e-05
0.00521719
9.87122e-05
0.00518679
0.000125034
0.00514494
0.000159016
0.00509985
0.000163958
0.000335483
0.00529491
3.29618e-08
0.00529488
4.6711e-07
0.00529484
1.19359e-06
0.00529475
2.1601e-06
0.00529458
3.40848e-06
0.00529431
5.01341e-06
0.00529392
7.10881e-06
0.00529334
9.9024e-06
0.00529249
1.36781e-05
0.00529121
1.88012e-05
0.00528925
2.57381e-05
0.00528624
3.51273e-05
0.00528155
4.78289e-05
0.00527417
6.49101e-05
0.00526252
8.74419e-05
0.00524424
0.000116995
0.00521657
0.000152701
0.00517353
0.000202064
0.00512449
0.000212994
0.000459972
0.00529519
6.10634e-08
0.00529523
4.22748e-07
0.00529535
1.07546e-06
0.0052955
2.00987e-06
0.00529568
3.22804e-06
0.00529592
4.7747e-06
0.00529624
6.789e-06
0.00529665
9.48941e-06
0.00529716
1.31701e-05
0.00529774
1.82213e-05
0.00529831
2.51679e-05
0.00529868
3.4757e-05
0.00529842
4.80851e-05
0.00529671
6.66255e-05
0.00529183
9.2317e-05
0.00528102
0.00012781
0.00525981
0.000173906
0.00521802
0.000243859
0.00516794
0.000263075
0.000627908
0.00528999
5.15231e-08
0.00529014
2.72686e-07
0.00529045
7.65041e-07
0.00529086
1.60671e-06
0.00529138
2.70553e-06
0.00529211
4.04201e-06
0.00529314
5.76005e-06
0.00529455
8.07822e-06
0.00529646
1.12661e-05
0.00529899
1.56834e-05
0.00530232
2.18449e-05
0.00530656
3.05194e-05
0.00531168
4.29643e-05
0.00531746
6.08364e-05
0.00532248
8.73042e-05
0.00532473
0.000125557
0.00531715
0.000181491
0.00528403
0.000276974
0.00524665
0.000300456
0.000874558
0.00523679
-4.15315e-09
0.00523705
1.70315e-08
0.00523755
2.65435e-07
0.00523817
9.82771e-07
0.00523899
1.88908e-06
0.00524016
2.8693e-06
0.00524183
4.08511e-06
0.00524417
5.74552e-06
0.00524738
8.05453e-06
0.00525179
1.12736e-05
0.00525783
1.57995e-05
0.00526608
2.22712e-05
0.00527711
3.19311e-05
0.00529195
4.59971e-05
0.0053103
6.89548e-05
0.00533409
0.000101769
0.00535374
0.000161847
0.00535298
0.000277729
0.00536548
0.000287959
0.00124004
0.00484956
-4.27666e-08
0.00484974
-1.65735e-07
0.00485017
-1.63332e-07
0.00485086
2.93465e-07
0.00485186
8.86511e-07
0.00485336
1.37039e-06
0.00485553
1.92165e-06
0.00485857
2.70014e-06
0.00486282
3.80891e-06
0.00486872
5.37695e-06
0.00487695
7.56955e-06
0.00488852
1.07007e-05
0.00490485
1.55953e-05
0.00492833
2.2523e-05
0.00496147
3.58084e-05
0.00501222
5.10183e-05
0.00507733
9.6737e-05
0.00517989
0.000175167
0.00530408
0.000163769
0.00154412
0.00286096
0.0028608
0.00286063
0.00286093
0.00286181
0.00286318
0.0028651
0.00286781
0.00287161
0.00287699
0.00288456
0.00289526
0.00291086
0.00293338
0.00296919
0.00302021
0.00311694
0.00329211
0.00345588
)
;

boundaryField
{
    movingWall
    {
        type            calculated;
        value           nonuniform 0();
    }
    fixedWalls
    {
        type            calculated;
        value           uniform 0;
    }
    frontAndBack
    {
        type            empty;
        value           nonuniform 0();
    }
    right
    {
        type            calculated;
        value           nonuniform List<scalar> 
20
(
-0.00286096
-0.00484943
-0.00523654
-0.00528973
-0.00529497
-0.00529476
-0.00529405
-0.00529339
-0.0052929
-0.00529265
-0.00529266
-0.00529293
-0.00529345
-0.00529416
-0.00529495
-0.00529521
-0.00528998
-0.00523674
-0.00484952
-0.002861
)
;
    }
    left
    {
        type            calculated;
        value           nonuniform List<scalar> 
20
(
0.005
0.005
0.005
0.005
0.005
0.005
0.005
0.005
0.005
0.005
0.005
0.005
0.005
0.005
0.005
0.005
0.005
0.005
0.005
0.005
)
;
    }
}


// ************************************************************************* //
