/*--------------------------------*- C++ -*----------------------------------*\
  =========                 |
  \\      /  F ield         | OpenFOAM: The Open Source CFD Toolbox
   \\    /   O peration     | Website:  https://openfoam.org
    \\  /    A nd           | Version:  7
     \\/     M anipulation  |
\*---------------------------------------------------------------------------*/
FoamFile
{
    version     2.0;
    format      ascii;
    class       volVectorField;
    location    "0.1";
    object      U;
}
// * * * * * * * * * * * * * * * * * * * * * * * * * * * * * * * * * * * * * //

dimensions      [0 1 -1 0 0 0 0];

internalField   nonuniform List<vector> 
400
(
(0.572235 2.02732e-05 0)
(0.572049 3.42597e-05 0)
(0.572205 3.34826e-05 0)
(0.572169 -2.28795e-05 0)
(0.572236 -9.08538e-05 0)
(0.572481 -0.000144426 0)
(0.572817 -0.000204442 0)
(0.573275 -0.000287495 0)
(0.573922 -0.000402511 0)
(0.574831 -0.000564458 0)
(0.57611 -0.000799617 0)
(0.577914 -0.00114344 0)
(0.580559 -0.0016744 0)
(0.584181 -0.00242996 0)
(0.590674 -0.00387631 0)
(0.596254 -0.0055643 0)
(0.622956 -0.010835 0)
(0.602905 -0.0192141 0)
(0.784978 -0.0189797 0)
(0.468305 -0.213063 0)
(0.969896 1.75874e-05 0)
(0.969738 2.40381e-05 0)
(0.970096 4.43429e-06 0)
(0.970133 -0.000111881 0)
(0.970203 -0.000268632 0)
(0.970485 -0.000422424 0)
(0.97087 -0.000604702 0)
(0.971382 -0.00085155 0)
(0.972104 -0.00119154 0)
(0.973112 -0.00166669 0)
(0.974519 -0.0023459 0)
(0.976443 -0.00332354 0)
(0.979345 -0.00479652 0)
(0.982664 -0.00690023 0)
(0.990691 -0.0106195 0)
(0.990043 -0.0154078 0)
(1.02975 -0.0261396 0)
(0.96739 -0.0476665 0)
(1.15381 -0.038774 0)
(0.891897 -0.317757 0)
(1.0473 -8.76095e-06 0)
(1.04718 -3.98289e-05 0)
(1.04757 -0.000116894 0)
(1.0476 -0.000267214 0)
(1.04764 -0.000464414 0)
(1.04787 -0.000696952 0)
(1.04818 -0.000994317 0)
(1.04857 -0.00139586 0)
(1.04912 -0.00194715 0)
(1.04988 -0.00271426 0)
(1.05093 -0.00379677 0)
(1.05229 -0.00533511 0)
(1.05438 -0.00756626 0)
(1.05617 -0.0107879 0)
(1.06236 -0.015798 0)
(1.05637 -0.0231014 0)
(1.0919 -0.0349569 0)
(1.01213 -0.0564785 0)
(1.18268 -0.0643772 0)
(0.898097 -0.211437 0)
(1.05793 -2.91468e-05 0)
(1.0578 -8.68035e-05 0)
(1.05817 -0.000198801 0)
(1.05816 -0.000372833 0)
(1.05815 -0.000602736 0)
(1.05831 -0.000892914 0)
(1.05851 -0.001271 0)
(1.05875 -0.00177811 0)
(1.05908 -0.002469 0)
(1.05952 -0.00342188 0)
(1.06011 -0.00474912 0)
(1.06081 -0.00660657 0)
(1.06193 -0.00922007 0)
(1.06223 -0.0129017 0)
(1.06623 -0.0181796 0)
(1.05692 -0.0257166 0)
(1.08739 -0.0361176 0)
(1.00241 -0.0529172 0)
(1.16581 -0.0587336 0)
(0.871209 -0.148684 0)
(1.05897 -4.07044e-05 0)
(1.05884 -0.00011183 2.55875e-36)
(1.05918 -0.000242173 -2.55875e-36)
(1.05912 -0.000429863 0)
(1.05904 -0.000676437 0)
(1.05912 -0.000993911 0)
(1.0592 -0.00140977 0)
(1.05928 -0.00196468 0)
(1.05937 -0.00271423 0)
(1.05948 -0.00373583 0)
(1.05959 -0.0051362 0)
(1.05964 -0.00705937 0)
(1.05985 -0.00969635 0)
(1.0589 -0.0133014 0)
(1.06113 -0.0181745 0)
(1.04974 -0.0247531 0)
(1.07709 -0.0330197 0)
(0.990328 -0.0450165 0)
(1.15226 -0.0482447 0)
(0.853821 -0.107857 0)
(1.05892 -4.51693e-05 0)
(1.05878 -0.000118886 2.03861e-35)
(1.0591 -0.000251559 -2.03861e-35)
(1.059 -0.000437205 0)
(1.05886 -0.000679504 0)
(1.05886 -0.00099287 0)
(1.05882 -0.00140339 0)
(1.05872 -0.00194882 0)
(1.05858 -0.00268088 0)
(1.05837 -0.00366876 0)
(1.05805 -0.00500058 0)
(1.05751 -0.00678798 0)
(1.05694 -0.00917238 0)
(1.055 -0.0123509 0)
(1.05596 -0.0164765 0)
(1.04329 -0.0217572 0)
(1.06894 -0.0279741 0)
(0.981535 -0.0363019 0)
(1.14395 -0.0377955 0)
(0.844278 -0.079059 0)
(1.05877 -4.44397e-05 0)
(1.05863 -0.000111357 2.53837e-36)
(1.05893 -0.000231344 -2.53837e-36)
(1.05879 -0.00039785 0)
(1.0586 -0.000614279 0)
(1.05851 -0.000893727 0)
(1.05836 -0.00125827 0)
(1.05811 -0.00173963 0)
(1.05776 -0.00238189 0)
(1.05727 -0.00324378 0)
(1.05659 -0.00439517 0)
(1.05558 -0.00591329 0)
(1.0544 -0.0078814 0)
(1.05171 -0.0104344 0)
(1.05181 -0.0136521 0)
(1.03836 -0.0176177 0)
(1.06315 -0.0220745 0)
(0.975621 -0.027716 0)
(1.1389 -0.0281776 0)
(0.83894 -0.0569245 0)
(1.05863 -4.03667e-05 0)
(1.05849 -9.24488e-05 0)
(1.05877 -0.000186566 0)
(1.05861 -0.000317989 0)
(1.05837 -0.000488957 0)
(1.05822 -0.000709426 0)
(1.05798 -0.000995759 0)
(1.05761 -0.00137083 0)
(1.05709 -0.00186655 0)
(1.05637 -0.00252664 0)
(1.05539 -0.00340365 0)
(1.05403 -0.00455239 0)
(1.05243 -0.00601776 0)
(1.04924 -0.00787092 0)
(1.04877 -0.0101392 0)
(1.03488 -0.0128605 0)
(1.05924 -0.0158338 0)
(0.971793 -0.0194683 0)
(1.13584 -0.019436 0)
(0.835873 -0.0386082 0)
(1.05853 -3.45773e-05 0)
(1.05839 -6.5519e-05 0)
(1.05866 -0.000123284 0)
(1.05847 -0.000206449 0)
(1.0582 -0.000315537 0)
(1.05801 -0.000456346 0)
(1.0577 -0.000639161 0)
(1.05724 -0.000877868 0)
(1.05661 -0.00119143 0)
(1.05573 -0.00160484 0)
(1.05456 -0.00214775 0)
(1.05296 -0.00285329 0)
(1.05108 -0.00375183 0)
(1.0476 -0.00488004 0)
(1.04681 -0.00622586 0)
(1.03267 -0.00780153 0)
(1.05683 -0.00949712 0)
(0.969501 -0.0115439 0)
(1.13407 -0.0113547 0)
(0.83417 -0.0224813 0)
(1.05848 -2.80047e-05 0)
(1.05834 -3.38756e-05 1.00847e-35)
(1.05861 -4.88857e-05 -1.00847e-35)
(1.05841 -7.56902e-05 0)
(1.05812 -0.000112656 0)
(1.0579 -0.000160475 0)
(1.05756 -0.000222287 0)
(1.05705 -0.00030282 0)
(1.05636 -0.000409475 0)
(1.05541 -0.000551474 0)
(1.05414 -0.00073635 0)
(1.05243 -0.000969902 0)
(1.0504 -0.00126617 0)
(1.04677 -0.00165023 0)
(1.04584 -0.00209877 0)
(1.0316 -0.00260662 0)
(1.05568 -0.00315232 0)
(0.968428 -0.00383433 0)
(1.13326 -0.00366654 0)
(0.833411 -0.00749598 0)
(1.05847 -2.10607e-05 0)
(1.05834 -2.76219e-07 0)
(1.05861 2.97072e-05 0)
(1.05841 6.17367e-05 0)
(1.05812 9.97613e-05 0)
(1.0579 0.000148511 0)
(1.05756 0.000212894 0)
(1.05706 0.000298578 0)
(1.05636 0.000409882 0)
(1.05541 0.000550546 0)
(1.05414 0.000731168 0)
(1.05243 0.000972766 0)
(1.0504 0.00128567 0)
(1.04676 0.00165568 0)
(1.04585 0.00209813 0)
(1.03161 0.00262764 0)
(1.05568 0.00318688 0)
(0.968429 0.003802 0)
(1.13327 0.0038898 0)
(0.833426 0.00713822 0)
(1.05852 -1.49371e-05 0)
(1.0584 3.16816e-05 0)
(1.05868 0.000104894 0)
(1.05848 0.000193114 0)
(1.05821 0.000302781 0)
(1.05801 0.000443497 0)
(1.05771 0.000627388 0)
(1.05725 0.000870913 0)
(1.05661 0.00119201 0)
(1.05573 0.0016091 0)
(1.05457 0.00214857 0)
(1.05298 0.00285377 0)
(1.05108 0.00376341 0)
(1.04758 0.00488612 0)
(1.04682 0.00623163 0)
(1.03269 0.00782241 0)
(1.05683 0.0095274 0)
(0.969507 0.0115134 0)
(1.13408 0.0115694 0)
(0.834213 0.0221375 0)
(1.05861 -1.02072e-05 0)
(1.05851 5.85158e-05 0)
(1.0588 0.000168595 0)
(1.05862 0.000305115 0)
(1.05837 0.000476908 0)
(1.05822 0.000697287 0)
(1.05799 0.000984156 0)
(1.05762 0.00136393 0)
(1.0571 0.00186916 0)
(1.05636 0.00253546 0)
(1.05539 0.00340589 0)
(1.05405 0.0045437 0)
(1.05243 0.00601952 0)
(1.04923 0.00788171 0)
(1.04879 0.0101535 0)
(1.0349 0.0128776 0)
(1.05924 0.0158564 0)
(0.971805 0.0194406 0)
(1.13584 0.0196335 0)
(0.835939 0.0382904 0)
(1.05874 -4.93458e-06 0)
(1.05865 7.86274e-05 0)
(1.05896 0.0002144 0)
(1.05881 0.000386308 0)
(1.0586 0.000604718 0)
(1.05852 0.000885328 0)
(1.05838 0.00125039 0)
(1.05814 0.0017341 0)
(1.05778 0.00238164 0)
(1.05727 0.0032463 0)
(1.05657 0.00439156 0)
(1.05559 0.00590401 0)
(1.05442 0.00789024 0)
(1.05171 0.0104541 0)
(1.05183 0.0136638 0)
(1.03838 0.0176226 0)
(1.06315 0.0220903 0)
(0.975641 0.027693 0)
(1.13891 0.0283522 0)
(0.839026 0.0566429 0)
(1.05889 2.39831e-06 0)
(1.05882 9.03824e-05 -2.04121e-35)
(1.05914 0.000236689 2.04121e-35)
(1.05902 0.000427374 0)
(1.05887 0.000672113 0)
(1.05886 0.000986912 0)
(1.05883 0.00139698 0)
(1.05874 0.00194187 0)
(1.0586 0.00267592 0)
(1.05837 0.00366747 0)
(1.05804 0.00500124 0)
(1.05754 0.00679097 0)
(1.05698 0.00918571 0)
(1.05499 0.0123614 0)
(1.05597 0.0164751 0)
(1.0433 0.0217583 0)
(1.06895 0.0279941 0)
(0.981564 0.036286 0)
(1.14395 0.0379438 0)
(0.844379 0.0788226 0)
(1.05893 1.00478e-05 0)
(1.05888 9.05036e-05 0)
(1.05923 0.000230324 0)
(1.05915 0.000422119 0)
(1.05906 0.000670915 0)
(1.05913 0.000989479 0)
(1.05922 0.00140473 0)
(1.0593 0.00195922 0)
(1.05939 0.00271167 0)
(1.05948 0.00373936 0)
(1.05958 0.00514351 0)
(1.05967 0.00706379 0)
(1.05988 0.00969601 0)
(1.05888 0.0132989 0)
(1.06114 0.0181738 0)
(1.04977 0.0247621 0)
(1.07711 0.0330431 0)
(0.990359 0.0450017 0)
(1.15226 0.048357 0)
(0.853931 0.107673 0)
(1.05789 1.35951e-05 0)
(1.05785 7.39201e-05 0)
(1.05823 0.000190448 0)
(1.05819 0.00036802 0)
(1.05816 0.000600065 0)
(1.05832 0.000890597 0)
(1.05852 0.00126758 0)
(1.05877 0.00177453 0)
(1.05911 0.00246865 0)
(1.05953 0.00342658 0)
(1.0601 0.00475362 0)
(1.06083 0.00660282 0)
(1.06196 0.00921139 0)
(1.06222 0.0129048 0)
(1.06625 0.0181908 0)
(1.05695 0.0257252 0)
(1.08741 0.0361277 0)
(1.00244 0.0529065 0)
(1.16581 0.0588082 0)
(0.871326 0.14854 0)
(1.04725 7.44202e-06 0)
(1.04721 3.33854e-05 0)
(1.04763 0.000110164 0)
(1.04763 0.000264488 0)
(1.04765 0.000464621 0)
(1.04788 0.000696808 0)
(1.04819 0.00099168 0)
(1.0486 0.00139218 0)
(1.04916 0.00194731 0)
(1.04989 0.00272094 0)
(1.05091 0.00380305 0)
(1.05231 0.00533202 0)
(1.05442 0.00756037 0)
(1.05617 0.0107951 0)
(1.06238 0.0158116 0)
(1.0564 0.0231096 0)
(1.09192 0.0349522 0)
(1.01217 0.0564667 0)
(1.18266 0.0644412 0)
(0.89821 0.211344 0)
(0.969838 -8.76394e-06 0)
(0.969765 -2.74018e-05 0)
(0.970145 -1.27192e-05 0)
(0.970159 0.000108818 0)
(0.970212 0.000269374 0)
(0.970485 0.00042215 0)
(0.970875 0.000601477 0)
(0.971405 0.000848342 0)
(0.972135 0.00119478 0)
(0.973116 0.0016765 0)
(0.974498 0.00234951 0)
(0.976455 0.00331439 0)
(0.979377 0.00479422 0)
(0.982672 0.0069125 0)
(0.990713 0.0106152 0)
(0.990053 0.0153991 0)
(1.02976 0.0261375 0)
(0.967436 0.0476653 0)
(1.15381 0.0388146 0)
(0.89199 0.317714 0)
(0.57221 -1.53249e-05 0)
(0.572073 -3.72239e-05 0)
(0.57223 -3.93713e-05 0)
(0.572172 2.04319e-05 0)
(0.57223 9.04976e-05 0)
(0.572475 0.000143879 0)
(0.572821 0.000203513 0)
(0.573291 0.00028772 0)
(0.573934 0.000405473 0)
(0.57482 0.000567251 0)
(0.576096 0.000795761 0)
(0.577937 0.00113599 0)
(0.580586 0.0016774 0)
(0.58417 0.00243616 0)
(0.590673 0.00386228 0)
(0.596267 0.00555503 0)
(0.622967 0.010844 0)
(0.602921 0.0192223 0)
(0.78497 0.0189832 0)
(0.468372 0.213045 0)
)
;

boundaryField
{
    movingWall
    {
        type            fixedValue;
        value           nonuniform 0();
    }
    fixedWalls
    {
        type            noSlip;
    }
    frontAndBack
    {
        type            empty;
    }
    right
    {
        type            zeroGradient;
    }
    left
    {
        type            fixedValue;
        value           uniform (1 0 0);
    }
}


// ************************************************************************* //
