/*--------------------------------*- C++ -*----------------------------------*\
  =========                 |
  \\      /  F ield         | OpenFOAM: The Open Source CFD Toolbox
   \\    /   O peration     | Website:  https://openfoam.org
    \\  /    A nd           | Version:  7
     \\/     M anipulation  |
\*---------------------------------------------------------------------------*/
FoamFile
{
    version     2.0;
    format      ascii;
    class       volScalarField;
    location    "0.3";
    object      p;
}
// * * * * * * * * * * * * * * * * * * * * * * * * * * * * * * * * * * * * * //

dimensions      [0 2 -2 0 0 0 0];

internalField   nonuniform List<scalar> 
400
(
-0.00690183
-0.0207295
-0.034601
-0.0485476
-0.0626076
-0.0768362
-0.091313
-0.106146
-0.121473
-0.137493
-0.154446
-0.172749
-0.192833
-0.215602
-0.242215
-0.273525
-0.317026
-0.359045
-0.458212
-0.61365
-0.00689216
-0.0206943
-0.0345482
-0.0484801
-0.0625207
-0.0767253
-0.0911729
-0.105967
-0.12123
-0.137166
-0.153969
-0.172085
-0.191798
-0.214008
-0.239849
-0.269182
-0.312412
-0.352619
-0.455675
-0.476059
-0.00685339
-0.0205724
-0.0343403
-0.0481726
-0.0620842
-0.0761215
-0.090351
-0.104853
-0.119707
-0.135082
-0.151065
-0.168056
-0.186021
-0.205765
-0.227419
-0.250504
-0.278971
-0.300228
-0.329018
-0.338375
-0.00679402
-0.0203885
-0.0340191
-0.0476887
-0.0613945
-0.0751659
-0.0890471
-0.103084
-0.117299
-0.131802
-0.146554
-0.161851
-0.17733
-0.19362
-0.209785
-0.225562
-0.240638
-0.248307
-0.252218
-0.240064
-0.00672528
-0.0201764
-0.0336445
-0.04712
-0.0605832
-0.074043
-0.0875163
-0.101012
-0.114495
-0.128009
-0.141406
-0.154867
-0.167796
-0.180664
-0.191992
-0.201759
-0.208395
-0.207963
-0.202525
-0.183082
-0.00665564
-0.0199614
-0.0332633
-0.0465391
-0.0597544
-0.072897
-0.0859571
-0.0989077
-0.111666
-0.124214
-0.136324
-0.148085
-0.158769
-0.168755
-0.176406
-0.181895
-0.183603
-0.178807
-0.17025
-0.150285
-0.00659149
-0.0197634
-0.0329116
-0.0460026
-0.0589889
-0.07184
-0.0845225
-0.0969792
-0.109089
-0.120788
-0.131793
-0.14213
-0.151018
-0.158796
-0.163836
-0.166487
-0.165356
-0.15839
-0.149002
-0.130343
-0.00653816
-0.0195989
-0.0326194
-0.0455568
-0.0583529
-0.070963
-0.0833352
-0.0953892
-0.106976
-0.118
-0.128144
-0.137398
-0.144965
-0.151179
-0.154469
-0.155332
-0.152586
-0.144615
-0.135146
-0.117882
-0.00650003
-0.0194814
-0.0324111
-0.0452386
-0.0578989
-0.0703374
-0.0824899
-0.0942608
-0.105484
-0.116041
-0.1256
-0.134132
-0.140838
-0.146062
-0.148285
-0.148111
-0.144496
-0.136093
-0.126731
-0.110466
-0.00648025
-0.019421
-0.0323039
-0.0450742
-0.0576636
-0.0700129
-0.0820517
-0.0936766
-0.104713
-0.115034
-0.124297
-0.132468
-0.13875
-0.143496
-0.145216
-0.144569
-0.140576
-0.132017
-0.122743
-0.106982
-0.00648051
-0.0194226
-0.0323068
-0.0450771
-0.0576656
-0.0700145
-0.0820532
-0.0936782
-0.104714
-0.115035
-0.124298
-0.132469
-0.138751
-0.143497
-0.145217
-0.144569
-0.140577
-0.132017
-0.122744
-0.106982
-0.00650094
-0.0194865
-0.0324198
-0.0452471
-0.0579051
-0.0703422
-0.0824945
-0.0942654
-0.105488
-0.116045
-0.125603
-0.134134
-0.14084
-0.146063
-0.148286
-0.148112
-0.144498
-0.136094
-0.126732
-0.110467
-0.00653987
-0.019608
-0.0326344
-0.0455708
-0.0583631
-0.0709708
-0.0833427
-0.0953968
-0.106983
-0.118006
-0.128148
-0.137402
-0.144969
-0.151182
-0.154471
-0.155334
-0.152588
-0.144616
-0.135147
-0.117883
-0.00659417
-0.0197772
-0.032933
-0.0460222
-0.0590029
-0.0718507
-0.0845328
-0.0969896
-0.109098
-0.120796
-0.131798
-0.142135
-0.151023
-0.1588
-0.163838
-0.166489
-0.165359
-0.158392
-0.149003
-0.130344
-0.00665925
-0.0199797
-0.0332908
-0.0465636
-0.0597718
-0.0729104
-0.0859699
-0.0989204
-0.111677
-0.124224
-0.136331
-0.14809
-0.158776
-0.16876
-0.176409
-0.181898
-0.183606
-0.17881
-0.170251
-0.150287
-0.00672948
-0.0201978
-0.0336763
-0.0471482
-0.0606035
-0.0740589
-0.0875314
-0.101027
-0.114508
-0.12802
-0.141414
-0.154875
-0.167804
-0.18067
-0.191996
-0.201762
-0.208398
-0.207966
-0.202527
-0.183084
-0.00679823
-0.0204105
-0.0340522
-0.0477187
-0.0614171
-0.0751843
-0.0890643
-0.103101
-0.117314
-0.131815
-0.146563
-0.161859
-0.177338
-0.193628
-0.20979
-0.225566
-0.240643
-0.24831
-0.25222
-0.240066
-0.00685691
-0.0205916
-0.0343706
-0.0482021
-0.0621085
-0.0761424
-0.0903702
-0.104871
-0.119722
-0.135095
-0.151075
-0.168064
-0.18603
-0.205772
-0.227425
-0.250509
-0.278976
-0.300232
-0.32902
-0.338377
-0.00689488
-0.0207087
-0.0345729
-0.0485075
-0.0625462
-0.0767483
-0.0911936
-0.105985
-0.121246
-0.13718
-0.15398
-0.172094
-0.191807
-0.214016
-0.239855
-0.269188
-0.312417
-0.352623
-0.455678
-0.47606
-0.00690487
-0.0207414
-0.0346222
-0.0485739
-0.0626344
-0.0768608
-0.0913344
-0.106164
-0.121489
-0.137507
-0.154458
-0.172759
-0.192842
-0.21561
-0.242221
-0.273531
-0.317031
-0.359051
-0.458216
-0.61365
)
;

boundaryField
{
    movingWall
    {
        type            zeroGradient;
    }
    fixedWalls
    {
        type            zeroGradient;
    }
    frontAndBack
    {
        type            empty;
    }
    right
    {
        type            fixedValue;
        value           uniform 0;
    }
    left
    {
        type            zeroGradient;
    }
}


// ************************************************************************* //
