/*--------------------------------*- C++ -*----------------------------------*\
  =========                 |
  \\      /  F ield         | OpenFOAM: The Open Source CFD Toolbox
   \\    /   O peration     | Website:  https://openfoam.org
    \\  /    A nd           | Version:  7
     \\/     M anipulation  |
\*---------------------------------------------------------------------------*/
FoamFile
{
    version     2.0;
    format      ascii;
    class       surfaceScalarField;
    location    "0.3";
    object      phi;
}
// * * * * * * * * * * * * * * * * * * * * * * * * * * * * * * * * * * * * * //

dimensions      [0 3 -1 0 0 0 0];

internalField   nonuniform List<scalar> 
760
(
0.00167487
-1.65845e-07
0.00167525
-3.84078e-07
0.00167596
-7.11291e-07
0.0016771
-1.13633e-06
0.00167887
-1.77447e-06
0.00168157
-2.69201e-06
0.00168547
-3.90577e-06
0.00169096
-5.48831e-06
0.00169861
-7.65217e-06
0.00170917
-1.05609e-05
0.00172398
-1.48101e-05
0.00174443
-2.04474e-05
0.00177383
-2.9396e-05
0.00181545
-4.16201e-05
0.00187485
-5.94003e-05
0.0019731
-9.82559e-05
0.00207387
-0.000100768
0.00240492
-0.000331049
0.00232632
7.86046e-05
-0.00267368
0.0040033
-3.62395e-07
0.0040037
-7.81833e-07
0.0040045
-1.51599e-06
0.0040059
-2.53693e-06
0.00400813
-4.00436e-06
0.00401151
-6.07025e-06
0.00401644
-8.83524e-06
0.00402342
-1.24685e-05
0.00403316
-1.73948e-05
0.0040466
-2.39999e-05
0.00406523
-3.34348e-05
0.00409083
-4.60531e-05
0.00412656
-6.51205e-05
0.00417659
-9.16485e-05
0.00424577
-0.00012858
0.00435437
-0.000206861
0.00448894
-0.00023534
0.00480693
-0.000649037
0.00503524
-0.000149708
-0.00263844
0.00510542
-5.16893e-07
0.00510569
-1.05253e-06
0.00510625
-2.07295e-06
0.00510728
-3.56982e-06
0.00510897
-5.6894e-06
0.00511152
-8.61881e-06
0.00511522
-1.25412e-05
0.00512047
-1.77178e-05
0.00512776
-2.46772e-05
0.00513776
-3.40028e-05
0.00515131
-4.69865e-05
0.00516978
-6.4521e-05
0.00519431
-8.96498e-05
0.00522779
-0.000125132
0.00527088
-0.000171672
0.00532685
-0.000262828
0.00539608
-0.000304573
0.00541096
-0.000663919
0.00554905
-0.000287798
-0.00208939
0.00549373
-6.14812e-07
0.00549388
-1.19828e-06
0.00549416
-2.36099e-06
0.00549472
-4.12552e-06
0.00549565
-6.6183e-06
0.00549705
-1.00257e-05
0.00549909
-1.45725e-05
0.00550194
-2.05763e-05
0.00550585
-2.85784e-05
0.00551111
-3.92677e-05
0.00551793
-5.38088e-05
0.00552686
-7.3444e-05
0.00553756
-0.000100356
0.00555041
-0.000137977
0.00556359
-0.000184854
0.00556943
-0.000268674
0.00557487
-0.000310011
0.00549491
-0.000583956
0.00550498
-0.00029787
-0.00158441
0.00560102
-6.49721e-07
0.00560106
-1.23129e-06
0.00560111
-2.41296e-06
0.00560122
-4.23854e-06
0.00560142
-6.82097e-06
0.00560173
-1.03313e-05
0.00560215
-1.49975e-05
0.00560272
-2.11456e-05
0.00560342
-2.92737e-05
0.00560421
-4.00625e-05
0.00560487
-5.44656e-05
0.00560516
-7.37296e-05
0.00560407
-9.92652e-05
0.00560018
-0.000134095
0.00559127
-0.000175943
0.00556742
-0.000244825
0.0055377
-0.000280286
0.005433
-0.00047926
0.00539265
-0.000257513
-0.00119176
0.00562392
-6.25577e-07
0.00562385
-1.15982e-06
0.00562369
-2.25288e-06
0.0056234
-3.95531e-06
0.00562295
-6.36765e-06
0.00562226
-9.63835e-06
0.00562123
-1.3972e-05
0.00561975
-1.96626e-05
0.00561761
-2.71316e-05
0.00561451
-3.69674e-05
0.00560995
-4.99039e-05
0.00560319
-6.69749e-05
0.00559299
-8.90568e-05
0.00557725
-0.00011836
0.00555398
-0.000152673
0.00551472
-0.000205558
0.00546755
-0.000233126
0.00536222
-0.000373926
0.00530891
-0.000204197
-0.000882853
0.00562636
-5.50745e-07
0.0056262
-9.94728e-07
0.00562585
-1.90403e-06
0.00562522
-3.32488e-06
0.00562419
-5.34178e-06
0.00562263
-8.07437e-06
0.00562034
-1.16869e-05
0.0056171
-1.64148e-05
0.00561255
-2.25828e-05
0.00560622
-3.06441e-05
0.00559745
-4.11252e-05
0.00558525
-5.47772e-05
0.00556832
-7.21242e-05
0.00554456
-9.46031e-05
0.00551231
-0.000120425
0.00546514
-0.000158387
0.00540997
-0.000177955
0.00531005
-0.000274006
0.00525595
-0.000150103
-0.0006269
0.00562496
-4.36592e-07
0.00562471
-7.5315e-07
0.00562421
-1.39977e-06
0.0056233
-2.4115e-06
0.00562181
-3.85204e-06
0.00561954
-5.80679e-06
0.00561624
-8.38965e-06
0.00561159
-1.17624e-05
0.00560515
-1.61432e-05
0.00559634
-2.18345e-05
0.00558439
-2.91732e-05
0.00556825
-3.86354e-05
0.00554663
-5.05098e-05
0.00551766
-6.563e-05
0.00547999
-8.2756e-05
0.00542878
-0.000107173
0.00537032
-0.000119502
0.00527581
-0.000179491
0.00522392
-9.82137e-05
-0.000402981
0.00562342
-2.95369e-07
0.00562312
-4.57598e-07
0.00562251
-7.84867e-07
0.00562139
-1.29762e-06
0.00561958
-2.03509e-06
0.00561681
-3.04456e-06
0.00561281
-4.38402e-06
0.00560718
-6.13444e-06
0.00559944
-8.404e-06
0.00558895
-1.13424e-05
0.00557489
-1.51124e-05
0.0055562
-1.99433e-05
0.00553165
-2.59598e-05
0.00549956
-3.35426e-05
0.00545885
-4.20497e-05
0.00540568
-5.39957e-05
0.00534606
-5.98889e-05
0.00525538
-8.88067e-05
0.00520565
-4.84844e-05
-0.000197332
0.00562256
-1.40108e-07
0.00562223
-1.33917e-07
0.00562156
-1.12104e-07
0.00562034
-7.9537e-08
0.00561836
-4.89149e-08
0.00561534
-2.72385e-08
0.00561097
-1.42532e-08
0.00560484
-7.58268e-09
0.00559644
-4.43014e-09
0.0055851
-3.35568e-09
0.00556999
-2.37651e-09
0.00555005
-3.46386e-09
0.00552409
-1.40585e-09
0.00549056
-4.43337e-09
0.0054485
1.11042e-08
0.00539453
-2.92557e-08
0.00533459
4.80666e-08
0.00524585
-5.95423e-08
0.00519731
4.70376e-08
-1.85425e-08
0.00562256
1.24928e-08
0.00562224
1.90937e-07
0.00562156
5.62047e-07
0.00562034
1.13964e-06
0.00561836
1.93783e-06
0.00561534
2.99026e-06
0.00561097
4.35555e-06
0.00560484
6.11923e-06
0.00559644
8.39509e-06
0.0055851
1.13359e-05
0.00556999
1.51081e-05
0.00555005
1.99367e-05
0.0055241
2.59565e-05
0.00549056
3.35335e-05
0.0054485
4.20724e-05
0.00539453
5.39385e-05
0.00533459
5.99829e-05
0.00524584
8.86899e-05
0.00519731
4.85768e-05
0.000197296
0.00562344
1.55384e-07
0.00562314
4.90738e-07
0.00562252
1.1824e-06
0.0056214
2.25755e-06
0.00561958
3.75679e-06
0.00561682
5.75329e-06
0.00561281
8.36154e-06
0.00560718
1.17473e-05
0.00559945
1.61344e-05
0.00558895
2.18283e-05
0.00557489
2.91695e-05
0.0055562
3.86293e-05
0.00553165
5.05062e-05
0.00549956
6.56213e-05
0.00545885
8.27789e-05
0.00540567
0.00010712
0.00534607
0.000119591
0.00525538
0.00017938
0.00520565
9.83013e-05
0.000402947
0.00562501
2.79739e-07
0.00562475
7.44739e-07
0.00562424
1.69903e-06
0.00562331
3.1795e-06
0.00562182
5.25099e-06
0.00561955
8.02303e-06
0.00561625
1.16601e-05
0.0056116
1.64007e-05
0.00560516
2.25746e-05
0.00559635
3.06382e-05
0.00558439
4.11222e-05
0.00556825
5.47726e-05
0.00554664
7.21218e-05
0.00551766
9.45953e-05
0.00547999
0.000120447
0.00542877
0.000158339
0.00537033
0.000178036
0.0052758
0.000273906
0.00522392
0.000150182
0.000626869
0.00562646
3.81574e-07
0.00562626
9.36425e-07
0.00562589
2.06996e-06
0.00562525
3.82409e-06
0.00562422
6.28434e-06
0.00562265
9.59111e-06
0.00562036
1.3948e-05
0.00561711
1.96507e-05
0.00561256
2.71249e-05
0.00560623
3.69626e-05
0.00559745
4.99022e-05
0.00558525
6.69731e-05
0.00556832
8.90567e-05
0.00554456
0.000118353
0.00551232
0.000152693
0.00546514
0.000205517
0.00540998
0.000233198
0.00531004
0.000373841
0.00525596
0.000204267
0.000882827
0.00562406
4.55281e-07
0.00562394
1.05158e-06
0.00562375
2.26187e-06
0.00562345
4.12587e-06
0.00562298
6.74729e-06
0.00562228
1.02899e-05
0.00562125
1.49781e-05
0.00561977
2.11377e-05
0.00561762
2.927e-05
0.00561453
4.00597e-05
0.00560996
5.44656e-05
0.0056032
7.37314e-05
0.00559299
9.92677e-05
0.00557726
0.000134088
0.00555399
0.000175961
0.00551471
0.000244792
0.00546756
0.000280347
0.00536221
0.000479191
0.00530891
0.00025757
0.00119174
0.00560118
4.89148e-07
0.00560116
1.07529e-06
0.00560117
2.24653e-06
0.00560127
4.03115e-06
0.00560146
6.55325e-06
0.00560176
9.99028e-06
0.00560218
1.45588e-05
0.00560275
2.05736e-05
0.00560344
2.85783e-05
0.00560423
3.92668e-05
0.00560489
5.38106e-05
0.00560517
7.34501e-05
0.00560407
0.000100361
0.00560019
0.000137972
0.00559128
0.000184869
0.00556742
0.00026865
0.00553771
0.000310061
0.005433
0.000583901
0.00539265
0.000297915
0.00158439
0.00549387
4.65535e-07
0.00549396
9.88068e-07
0.00549421
1.99115e-06
0.00549476
3.48793e-06
0.00549568
5.62926e-06
0.00549708
8.58816e-06
0.00549911
1.25331e-05
0.00550196
1.77202e-05
0.00550586
2.468e-05
0.00551112
3.40024e-05
0.00551794
4.69898e-05
0.00552686
6.4532e-05
0.00553757
8.96575e-05
0.00555041
0.000125128
0.0055636
0.000171682
0.00556943
0.000262811
0.00557488
0.000304612
0.00549491
0.000663877
0.00550499
0.000287836
0.00208938
0.00510553
3.69373e-07
0.00510575
7.62627e-07
0.00510628
1.45769e-06
0.00510731
2.46477e-06
0.00510899
3.95088e-06
0.00511153
6.0465e-06
0.00511523
8.83299e-06
0.00512047
1.24743e-05
0.00512776
1.73977e-05
0.00513776
2.39981e-05
0.00515131
3.34392e-05
0.00516978
4.60672e-05
0.00519431
6.51279e-05
0.00522779
9.16448e-05
0.00527089
0.000128585
0.00532684
0.000206853
0.00539609
0.000235367
0.00541096
0.000649006
0.00554905
0.000149744
0.00263843
0.00400339
1.91473e-07
0.00400377
3.85594e-07
0.00400455
6.77694e-07
0.00400592
1.09143e-06
0.00400813
1.74434e-06
0.0040115
2.6825e-06
0.00401642
3.90848e-06
0.0040234
5.49305e-06
0.00403315
7.65245e-06
0.00404659
1.05586e-05
0.00406521
1.48143e-05
0.00409082
2.04575e-05
0.00412655
2.93991e-05
0.00417658
4.16169e-05
0.00424576
5.94009e-05
0.00435436
9.82532e-05
0.00448895
0.000100779
0.00480691
0.000331039
0.00503524
-7.85797e-05
0.00267367
0.00167495
0.00167534
0.00167602
0.00167711
0.00167885
0.00168154
0.00168544
0.00169094
0.00169859
0.00170915
0.00172396
0.00174442
0.00177382
0.00181544
0.00187484
0.00197309
0.00207387
0.00240491
0.00232633
)
;

boundaryField
{
    movingWall
    {
        type            calculated;
        value           nonuniform 0();
    }
    fixedWalls
    {
        type            calculated;
        value           uniform 0;
    }
    frontAndBack
    {
        type            empty;
        value           nonuniform 0();
    }
    right
    {
        type            calculated;
        value           nonuniform List<scalar> 
20
(
-0.0016747
-0.0040031
-0.00510527
-0.00549363
-0.00560099
-0.00562394
-0.00562644
-0.00562507
-0.00562356
-0.00562271
-0.00562271
-0.00562358
-0.00562513
-0.00562656
-0.00562413
-0.00560122
-0.00549385
-0.00510543
-0.00400322
-0.00167476
)
;
    }
    left
    {
        type            calculated;
        value           nonuniform List<scalar> 
20
(
0.005
0.005
0.005
0.005
0.005
0.005
0.005
0.005
0.005
0.005
0.005
0.005
0.005
0.005
0.005
0.005
0.005
0.005
0.005
0.005
)
;
    }
}


// ************************************************************************* //
