/*--------------------------------*- C++ -*----------------------------------*\
  =========                 |
  \\      /  F ield         | OpenFOAM: The Open Source CFD Toolbox
   \\    /   O peration     | Website:  https://openfoam.org
    \\  /    A nd           | Version:  7
     \\/     M anipulation  |
\*---------------------------------------------------------------------------*/
FoamFile
{
    version     2.0;
    format      ascii;
    class       volVectorField;
    location    "0.3";
    object      U;
}
// * * * * * * * * * * * * * * * * * * * * * * * * * * * * * * * * * * * * * //

dimensions      [0 1 -1 0 0 0 0];

internalField   nonuniform List<vector> 
400
(
(0.33496 -2.01427e-05 0)
(0.335002 -4.65884e-05 0)
(0.335109 -8.11302e-05 0)
(0.335294 -0.000125091 0)
(0.335577 -0.000194202 0)
(0.336013 -0.000292387 0)
(0.336665 -0.000418811 0)
(0.337591 -0.000583384 0)
(0.33889 -0.000810493 0)
(0.340675 -0.00112069 0)
(0.343201 -0.00157623 0)
(0.346602 -0.00219409 0)
(0.351662 -0.00318526 0)
(0.358304 -0.00454361 0)
(0.368757 -0.00673379 0)
(0.383752 -0.010649 0)
(0.402009 -0.0132841 0)
(0.447582 -0.0333015 0)
(0.521877 0.000509876 0)
(0.338458 -0.436246 0)
(0.800655 -5.24442e-05 0)
(0.800684 -0.00011992 0)
(0.800797 -0.000229076 0)
(0.801025 -0.000372597 0)
(0.801379 -0.000582284 0)
(0.801921 -0.00088306 0)
(0.802741 -0.00128463 0)
(0.803911 -0.00180923 0)
(0.805577 -0.00252284 0)
(0.807811 -0.00347954 0)
(0.8111 -0.0048652 0)
(0.815135 -0.00670212 0)
(0.821889 -0.00956996 0)
(0.828933 -0.0134877 0)
(0.842884 -0.0190779 0)
(0.858553 -0.0315361 0)
(0.878728 -0.0323389 0)
(0.942637 -0.109862 0)
(0.921859 0.0186813 0)
(1.11807 -0.569678 0)
(1.02109 -8.64494e-05 0)
(1.0211 -0.000182943 0)
(1.02117 -0.000360366 0)
(1.02134 -0.000614738 0)
(1.02161 -0.000976758 0)
(1.02201 -0.00148222 0)
(1.02263 -0.00216045 0)
(1.02351 -0.00305357 0)
(1.02478 -0.00425873 0)
(1.02638 -0.00587144 0)
(1.02896 -0.00814667 0)
(1.03151 -0.0111983 0)
(1.03707 -0.0156863 0)
(1.04016 -0.0219944 0)
(1.05205 -0.0303737 0)
(1.05583 -0.0479356 0)
(1.0719 -0.0544498 0)
(1.08921 -0.133905 0)
(1.06349 -0.0578503 0)
(1.16185 -0.473712 0)
(1.09875 -0.000112514 0)
(1.09875 -0.000225031 0)
(1.09878 -0.00044473 0)
(1.09889 -0.000775283 0)
(1.09903 -0.0012433 0)
(1.09925 -0.00188604 0)
(1.09959 -0.00274536 0)
(1.10006 -0.00388012 0)
(1.10078 -0.00539863 0)
(1.10155 -0.00743018 0)
(1.10307 -0.0102234 0)
(1.10386 -0.0139998 0)
(1.10742 -0.0192792 0)
(1.10654 -0.0267255 0)
(1.11469 -0.036214 0)
(1.10832 -0.0540722 0)
(1.11889 -0.0630339 0)
(1.10932 -0.126934 0)
(1.0839 -0.0650507 0)
(1.1338 -0.368436 0)
(1.12021 -0.000126089 0)
(1.1202 -0.000243647 1.49964e-36)
(1.1202 -0.000479572 -1.49964e-36)
(1.12024 -0.000843191 0)
(1.12027 -0.00135808 0)
(1.12031 -0.00205957 0)
(1.12038 -0.00299367 0)
(1.12047 -0.0042262 0)
(1.12065 -0.00586207 0)
(1.12065 -0.00804125 0)
(1.12114 -0.0109757 0)
(1.12044 -0.0149254 0)
(1.12205 -0.0202433 0)
(1.11825 -0.0276079 0)
(1.12291 -0.0366471 0)
(1.11072 -0.0521134 0)
(1.1169 -0.0604198 0)
(1.09609 -0.107364 0)
(1.07413 -0.0583832 0)
(1.1006 -0.277264 0)
(1.12478 -0.000127059 0)
(1.12476 -0.000239961 1.18643e-35)
(1.12474 -0.000468985 -1.18643e-35)
(1.12472 -0.000825952 0)
(1.12465 -0.00133217 0)
(1.12452 -0.00201943 0)
(1.12436 -0.00293144 0)
(1.12409 -0.00413139 0)
(1.12379 -0.00571209 0)
(1.12313 -0.0078028 0)
(1.12272 -0.0105726 0)
(1.12082 -0.0142563 0)
(1.12082 -0.01908 0)
(1.11499 -0.025579 0)
(1.11706 -0.0333179 0)
(1.10171 -0.0455804 0)
(1.10542 -0.052201 0)
(1.0799 -0.0857056 0)
(1.06294 -0.0473768 0)
(1.07663 -0.206515 0)
(1.12527 -0.000116975 0)
(1.12524 -0.00021612 1.46771e-36)
(1.1252 -0.000417802 -1.46771e-36)
(1.12512 -0.000733673 0)
(1.12496 -0.00118232 0)
(1.12469 -0.00179057 0)
(1.12432 -0.00259562 0)
(1.12376 -0.00365115 0)
(1.12304 -0.00503248 0)
(1.12183 -0.00684525 0)
(1.12067 -0.00921615 0)
(1.11784 -0.0123265 0)
(1.1166 -0.0163159 0)
(1.10936 -0.0215486 0)
(1.10968 -0.0276347 0)
(1.09256 -0.0367439 0)
(1.0951 -0.0415802 0)
(1.0675 -0.0649179 0)
(1.05505 -0.0359214 0)
(1.06119 -0.150073 0)
(1.12498 -9.79955e-05 0)
(1.12495 -0.000175197 0)
(1.12489 -0.000331972 0)
(1.12477 -0.000577974 0)
(1.12454 -0.000928116 0)
(1.12415 -0.00140298 0)
(1.12361 -0.00203061 0)
(1.12281 -0.00285114 0)
(1.12177 -0.00391933 0)
(1.12012 -0.00531147 0)
(1.1184 -0.00711437 0)
(1.11487 -0.00945168 0)
(1.11275 -0.0124047 0)
(1.10457 -0.0161966 0)
(1.10378 -0.0205293 0)
(1.08566 -0.0267663 0)
(1.0877 -0.0299966 0)
(1.05918 -0.0453771 0)
(1.05006 -0.0250292 0)
(1.05166 -0.102333 0)
(1.12468 -7.25682e-05 0)
(1.12464 -0.000121273 0)
(1.12456 -0.000219447 0)
(1.12441 -0.000373639 0)
(1.12413 -0.000594206 0)
(1.12366 -0.000894489 0)
(1.123 -0.00129182 0)
(1.12203 -0.00181072 0)
(1.12077 -0.00248407 0)
(1.11883 -0.00335737 0)
(1.11672 -0.00448074 0)
(1.11275 -0.00592478 0)
(1.11006 -0.00773087 0)
(1.10129 -0.0100177 0)
(1.09986 -0.0125985 0)
(1.0812 -0.0162284 0)
(1.08307 -0.0180605 0)
(1.05414 -0.0268265 0)
(1.04714 -0.0147453 0)
(1.04616 -0.0596484 0)
(1.1245 -4.32544e-05 0)
(1.12446 -5.92191e-05 5.76496e-36)
(1.12438 -9.00687e-05 -5.76496e-36)
(1.12422 -0.000138692 0)
(1.1239 -0.000210304 0)
(1.12339 -0.000310378 0)
(1.12267 -0.000444742 0)
(1.12162 -0.000621339 0)
(1.12024 -0.00085081 0)
(1.11815 -0.00114807 0)
(1.11586 -0.00152919 0)
(1.11166 -0.00201716 0)
(1.1087 -0.0026239 0)
(1.09966 -0.00338751 0)
(1.09793 -0.00424171 0)
(1.07903 -0.00543748 0)
(1.08085 -0.00602008 0)
(1.05178 -0.00888267 0)
(1.0458 -0.00486312 0)
(1.04363 -0.01961 0)
(1.1245 -1.24034e-05 0)
(1.12446 5.8488e-06 0)
(1.12438 4.52951e-05 0)
(1.12422 0.000106868 0)
(1.12391 0.000190712 0)
(1.12339 0.000299464 0)
(1.12267 0.00043905 0)
(1.12162 0.000618349 0)
(1.12024 0.00084909 0)
(1.11815 0.00114673 0)
(1.11586 0.00152815 0)
(1.11166 0.00201563 0)
(1.1087 0.00262326 0)
(1.09966 0.00338573 0)
(1.09793 0.00424615 0)
(1.07903 0.00542562 0)
(1.08085 0.0060392 0)
(1.05178 0.00885891 0)
(1.0458 0.00488197 0)
(1.04363 0.0196026 0)
(1.12467 1.70472e-05 0)
(1.12464 6.83928e-05 0)
(1.12456 0.000175332 0)
(1.12442 0.000342325 0)
(1.12413 0.000574874 0)
(1.12366 0.000883651 0)
(1.123 0.00128609 0)
(1.12204 0.00180761 0)
(1.12077 0.00248225 0)
(1.11883 0.0033561 0)
(1.11672 0.00447999 0)
(1.11275 0.00592356 0)
(1.11006 0.00773017 0)
(1.1013 0.0100158 0)
(1.09986 0.0126031 0)
(1.0812 0.0162174 0)
(1.08307 0.018079 0)
(1.05415 0.0268036 0)
(1.04714 0.0147635 0)
(1.04617 0.0596413 0)
(1.12498 4.30262e-05 0)
(1.12496 0.000123507 0)
(1.12489 0.00028933 0)
(1.12478 0.000547766 0)
(1.12454 0.000909354 0)
(1.12415 0.00139238 0)
(1.12361 0.00202498 0)
(1.12281 0.00284807 0)
(1.12177 0.00391754 0)
(1.12013 0.00531031 0)
(1.1184 0.0071139 0)
(1.11487 0.00945075 0)
(1.11276 0.0124039 0)
(1.10457 0.0161947 0)
(1.10378 0.020534 0)
(1.08566 0.0267564 0)
(1.0877 0.0300139 0)
(1.05918 0.0453558 0)
(1.05005 0.0250462 0)
(1.05168 0.102327 0)
(1.12527 6.51154e-05 0)
(1.12525 0.000167855 0)
(1.12521 0.000378307 0)
(1.12513 0.000705628 0)
(1.12497 0.00116474 0)
(1.12469 0.00178061 0)
(1.12432 0.00259045 0)
(1.12376 0.00364847 0)
(1.12304 0.00503095 0)
(1.12183 0.00684418 0)
(1.12067 0.00921566 0)
(1.11784 0.0123257 0)
(1.1166 0.0163153 0)
(1.10936 0.021547 0)
(1.10968 0.0276391 0)
(1.09257 0.0367351 0)
(1.0951 0.0415955 0)
(1.06751 0.0648989 0)
(1.05504 0.0359365 0)
(1.06121 0.150067 0)
(1.12479 8.2613e-05 0)
(1.12478 0.000198629 -1.18744e-35)
(1.12476 0.000434908 1.18744e-35)
(1.12473 0.000801298 0)
(1.12466 0.00131643 0)
(1.12453 0.00201055 0)
(1.12436 0.00292708 0)
(1.1241 0.00412935 0)
(1.1238 0.00571094 0)
(1.12314 0.00780186 0)
(1.12272 0.0105722 0)
(1.12082 0.014256 0)
(1.12082 0.0190803 0)
(1.11499 0.0255779 0)
(1.11706 0.0333218 0)
(1.10171 0.0455727 0)
(1.10542 0.052214 0)
(1.07991 0.0856898 0)
(1.06293 0.0473895 0)
(1.07665 0.20651 0)
(1.12021 9.37164e-05 0)
(1.12021 0.000212767 0)
(1.12022 0.000452756 0)
(1.12025 0.00082258 0)
(1.12028 0.0013444 0)
(1.12031 0.002052 0)
(1.12039 0.00299036 0)
(1.12047 0.00422508 0)
(1.12065 0.00586162 0)
(1.12066 0.00804083 0)
(1.12114 0.0109759 0)
(1.12044 0.0149263 0)
(1.12206 0.0202443 0)
(1.11826 0.0276068 0)
(1.12291 0.0366502 0)
(1.11072 0.0521072 0)
(1.1169 0.0604308 0)
(1.0961 0.107352 0)
(1.07412 0.0583936 0)
(1.10062 0.277261 0)
(1.09875 9.51886e-05 0)
(1.09876 0.000206516 0)
(1.0988 0.000425446 0)
(1.0989 0.000758036 0)
(1.09904 0.00123104 0)
(1.09925 0.00187953 0)
(1.0996 0.00274318 0)
(1.10006 0.00388012 0)
(1.10078 0.005399 0)
(1.10155 0.00743022 0)
(1.10307 0.010224 0)
(1.10386 0.0140016 0)
(1.10743 0.0192805 0)
(1.10654 0.0267244 0)
(1.11469 0.0362163 0)
(1.10832 0.0540681 0)
(1.11888 0.0630431 0)
(1.10934 0.126924 0)
(1.08389 0.0650592 0)
(1.13382 0.368434 0)
(1.02108 8.38753e-05 0)
(1.0211 0.000176295 0)
(1.02118 0.000347458 0)
(1.02135 0.000599546 0)
(1.02162 0.000965073 0)
(1.02202 0.00147644 0)
(1.02263 0.0021593 0)
(1.02351 0.00305452 0)
(1.02478 0.00425951 0)
(1.02638 0.00587133 0)
(1.02896 0.00814744 0)
(1.0315 0.0112009 0)
(1.03707 0.015688 0)
(1.04017 0.0219937 0)
(1.05205 0.0303752 0)
(1.05583 0.0479334 0)
(1.0719 0.0544567 0)
(1.08922 0.133897 0)
(1.06348 0.0578572 0)
(1.16187 0.47371 0)
(0.800657 5.88913e-05 0)
(0.800694 0.000120787 0)
(0.800812 0.000220584 0)
(0.801035 0.000359919 0)
(0.801381 0.000572771 0)
(0.801918 0.000879285 0)
(0.802736 0.00128487 0)
(0.803907 0.00181065 0)
(0.805574 0.0025232 0)
(0.807808 0.0034789 0)
(0.811096 0.00486615 0)
(0.81513 0.00670515 0)
(0.821887 0.0095713 0)
(0.828933 0.0134869 0)
(0.842882 0.0190782 0)
(0.858552 0.0315352 0)
(0.878725 0.0323426 0)
(0.942642 0.109857 0)
(0.921849 -0.0186759 0)
(1.11809 0.569677 0)
(0.334972 2.35892e-05 0)
(0.335018 4.64013e-05 0)
(0.335125 7.61542e-05 0)
(0.335301 0.00011932 0)
(0.335575 0.000191122 0)
(0.336007 0.00029208 0)
(0.336659 0.000419658 0)
(0.337586 0.000583991 0)
(0.338886 0.000810353 0)
(0.34067 0.00112051 0)
(0.343195 0.00157705 0)
(0.346598 0.00219523 0)
(0.351661 0.00318525 0)
(0.358302 0.00454314 0)
(0.368755 0.00673369 0)
(0.383749 0.0106488 0)
(0.402008 0.0132851 0)
(0.447582 0.0333012 0)
(0.521872 -0.000507379 0)
(0.33847 0.436242 0)
)
;

boundaryField
{
    movingWall
    {
        type            fixedValue;
        value           nonuniform 0();
    }
    fixedWalls
    {
        type            noSlip;
    }
    frontAndBack
    {
        type            empty;
    }
    right
    {
        type            zeroGradient;
    }
    left
    {
        type            fixedValue;
        value           uniform (1 0 0);
    }
}


// ************************************************************************* //
