/*--------------------------------*- C++ -*----------------------------------*\
  =========                 |
  \\      /  F ield         | OpenFOAM: The Open Source CFD Toolbox
   \\    /   O peration     | Website:  https://openfoam.org
    \\  /    A nd           | Version:  7
     \\/     M anipulation  |
\*---------------------------------------------------------------------------*/
FoamFile
{
    version     2.0;
    format      ascii;
    class       volScalarField;
    location    "0.5";
    object      p;
}
// * * * * * * * * * * * * * * * * * * * * * * * * * * * * * * * * * * * * * //

dimensions      [0 2 -2 0 0 0 0];

internalField   nonuniform List<scalar> 
733
(
-0.21675
-0.216383
-0.18317
-0.124808
-0.0538714
0.0163978
0.0728526
0.107787
0.119014
0.108733
0.0755413
0.0358864
-0.054771
-0.198915
-0.215988
-0.226477
-0.198763
-0.147965
-0.0791359
-0.0083863
0.0505896
0.0888423
0.10303
0.096078
0.0640599
0.0230574
-0.0769752
-0.11612
-0.257597
-0.257863
-0.228758
-0.176923
-0.106598
-0.032519
0.0302952
0.0724032
0.090751
0.0894569
0.0682966
0.0415584
-0.000998478
-0.030513
-0.361571
-0.297923
-0.253127
-0.199086
-0.12835
-0.0530993
0.0110672
0.0553016
0.0777892
0.0832501
0.0747127
0.0621856
0.0468497
0.0381593
-0.00741025
-0.0455281
-0.0888539
-0.136728
-0.191564
-0.26232
-0.398595
-0.294674
-0.246941
-0.195048
-0.128816
-0.058537
0.00148529
0.0440139
0.0686116
0.0798712
0.0815252
0.0807719
0.0800062
0.0854064
-0.0199325
-0.0606696
-0.105048
-0.153572
-0.205068
-0.25194
-0.269849
-0.245832
-0.207187
-0.160292
-0.10421
-0.0461485
0.00391024
0.0410033
0.0652967
0.0804081
0.089199
0.097105
0.104744
0.118627
-0.0177993
-0.0534458
-0.0910606
-0.129298
-0.164978
-0.192996
-0.203854
-0.189726
-0.158597
-0.118813
-0.074113
-0.0291902
0.0104371
0.0418923
0.065254
0.0829267
0.0965941
0.110495
0.123461
0.142603
-0.0147128
-0.044253
-0.073823
-0.101665
-0.125454
-0.14203
-0.147106
-0.136869
-0.113732
-0.0831303
-0.0489985
-0.0145334
0.017165
0.0443025
0.0666878
0.0858928
0.102728
0.120672
0.137266
0.159954
-0.0117704
-0.0355563
-0.0580124
-0.077675
-0.0933531
-0.103232
-0.105136
-0.0972962
-0.0804519
-0.0574551
-0.0311522
-0.00393755
0.0221762
0.0460509
0.0674547
0.0875192
0.106454
0.127242
0.146507
0.171865
-0.00934224
-0.028192
-0.0450932
-0.0590437
-0.0696339
-0.0758219
-0.0762794
-0.070066
-0.0574246
-0.0398512
-0.0192125
0.00275769
0.0247229
0.0460081
0.066415
0.086849
0.107128
0.129957
0.151278
0.178861
-0.00742832
-0.0223001
-0.0351336
-0.0452886
-0.0527164
-0.0567865
-0.0566135
-0.0516289
-0.041926
-0.0283342
-0.0120022
0.00592294
0.0245859
0.04362
0.0628797
0.0831996
0.104188
0.128459
0.151427
0.181077
-0.00594048
-0.0177343
-0.0276433
-0.0352649
-0.0407036
-0.0435703
-0.0432528
-0.0393702
-0.0319479
-0.0214554
-0.00856488
0.00601637
0.021776
0.0385791
0.0563588
0.0760022
0.0970556
0.122219
0.146536
0.178299
-0.00480066
-0.0142615
-0.0220747
-0.0280032
-0.0322163
-0.0344688
-0.034321
-0.0315006
-0.0259971
-0.0180808
-0.00813245
0.00344004
0.0163683
0.0307078
0.0464774
0.0647284
0.0850676
0.110447
0.13579
0.16982
-0.00393817
-0.0116532
-0.017975
-0.0227886
-0.0262853
-0.0283061
-0.0285296
-0.0267596
-0.0229774
-0.0173504
-0.0100957
-0.00143591
0.00852064
0.0199866
0.0329488
0.0488379
0.0674302
0.0920193
0.117773
0.153996
-0.00329308
-0.00971458
-0.0149867
-0.0190887
-0.022212
-0.0242517
-0.0249749
-0.0242498
-0.0220716
-0.0185698
-0.0138964
-0.00818882
-0.00148452
0.00670236
0.015682
0.0278348
0.0429025
0.0649096
0.0896881
0.127185
-0.00281895
-0.00829113
-0.0128384
-0.0165158
-0.0194987
-0.0217157
-0.0230059
-0.0232963
-0.0226143
-0.0210982
-0.0189158
-0.0162373
-0.0132733
-0.00983318
-0.00511142
0.00178721
0.0106531
0.0270282
0.0472339
0.0824163
-0.00248318
-0.00727251
-0.0113429
-0.0148054
-0.0177994
-0.0202735
-0.0221282
-0.0233459
-0.0239984
-0.0242602
-0.0243664
-0.0245996
-0.0251831
-0.0259306
-0.0273866
-0.02762
-0.0287255
-0.0223586
-0.0150942
0.008428
-0.00226863
-0.00659801
-0.0103947
-0.0137923
-0.0168752
-0.0196046
-0.0219335
-0.0238952
-0.0256074
-0.0272935
-0.0292661
-0.031786
-0.0354088
-0.040225
-0.0477422
-0.0558987
-0.0708166
-0.0792408
-0.100585
-0.10172
-0.00217106
-0.00625437
-0.00995261
-0.0133787
-0.0165579
-0.0194652
-0.0220923
-0.0245032
-0.026844
-0.0293589
-0.0323616
-0.0362594
-0.041718
-0.0491798
-0.0605194
-0.074813
-0.102144
-0.128171
-0.212882
-0.228317
-0.00219398
-0.00625427
-0.0100106
-0.0135225
-0.0167794
-0.0197648
-0.0224866
-0.0250147
-0.027487
-0.0301265
-0.0332647
-0.0373176
-0.0428787
-0.0505973
-0.0619347
-0.0773188
-0.103319
-0.128641
-0.203348
-0.328658
-0.21931
-0.213597
-0.221361
-0.216666
-0.219236
-0.213505
-0.221277
-0.227086
-0.239599
-0.239282
-0.215881
-0.226968
-0.239399
-0.239102
-0.271317
-0.319747
-0.290225
-0.257346
-0.271027
-0.319249
-0.289757
-0.345045
-0.452953
-0.344061
-0.360979
-0.344459
-0.450063
-0.34297
-0.0344028
-0.0107125
-0.0298936
-0.00741285
-0.0344244
-0.0107202
-0.0299157
-0.0766667
-0.0515936
-0.0723683
-0.0455636
-0.0767379
-0.0516356
-0.072425
-0.123303
-0.096646
-0.119723
-0.0889329
-0.123484
-0.0967415
-0.119871
-0.176124
-0.147007
-0.173937
-0.136944
-0.176541
-0.147234
-0.174274
-0.241337
-0.206638
-0.241097
-0.192101
-0.242564
-0.207158
-0.241886
-0.443048
-0.279583
-0.315373
-0.263979
-0.448926
-0.28064
-0.316135
-0.217468
-0.21829
-0.21468
-0.216744
-0.214665
-0.218304
-0.21744
-0.224564
-0.215967
-0.220119
-0.220645
-0.220128
-0.220611
-0.224558
-0.276003
-0.257579
-0.262176
-0.274387
-0.262218
-0.274275
-0.276101
-0.373634
-0.361405
-0.35483
-0.4006
-0.354671
-0.400134
-0.37454
-0.0167256
-0.0166233
-0.00774444
-0.00749089
-0.0166113
-0.0167273
-0.0078359
-0.0559329
-0.0455595
-0.0557456
-0.0462411
-0.0557556
-0.0462782
-0.0559171
-0.100535
-0.0888969
-0.10013
-0.0899354
-0.100153
-0.0899972
-0.100512
-0.150445
-0.136805
-0.149446
-0.138454
-0.149499
-0.138545
-0.150382
-0.209898
-0.19173
-0.206903
-0.194791
-0.207093
-0.194974
-0.209674
-0.29522
-0.26292
-0.289667
-0.270151
-0.290641
-0.270793
-0.294132
-0.370983
-0.336419
-0.316615
-0.397464
-0.370107
-0.335995
-0.316216
-0.21568
-0.21358
-0.212716
-0.217384
-0.212681
-0.217406
-0.215705
-0.217412
-0.216694
-0.218204
-0.214598
-0.214615
-0.218248
-0.217352
-0.215622
-0.213524
-0.212632
-0.217284
-0.21263
-0.217343
-0.215614
-0.232553
-0.239498
-0.228273
-0.242016
-0.228239
-0.241923
-0.232541
-0.224478
-0.215903
-0.220001
-0.220514
-0.220054
-0.220534
-0.224416
-0.232448
-0.239387
-0.228114
-0.241798
-0.228148
-0.241797
-0.232365
-0.295118
-0.319403
-0.294606
-0.312794
-0.294473
-0.312337
-0.295182
-0.275823
-0.257446
-0.261898
-0.274072
-0.262068
-0.274116
-0.275752
-0.294906
-0.31919
-0.294212
-0.312197
-0.294293
-0.312066
-0.294729
-0.409919
-0.452246
-0.44826
-0.398346
-0.44814
-0.3966
-0.410459
-0.373257
-0.361179
-0.354079
-0.399901
-0.354385
-0.399866
-0.3735
-0.409296
-0.450986
-0.447265
-0.395723
-0.447752
-0.39557
-0.408787
-0.0255855
-0.0343913
-0.0249705
-0.0343258
-0.0249684
-0.0343123
-0.0255813
-0.0167324
-0.00749214
-0.0166335
-0.00774567
-0.0166173
-0.0167386
-0.00783638
-0.0255962
-0.0344058
-0.0249866
-0.0343473
-0.0249788
-0.0343267
-0.0255976
-0.0668761
-0.0766689
-0.0660318
-0.0767823
-0.0660589
-0.076786
-0.0668415
-0.0559652
-0.0455817
-0.0557892
-0.0462621
-0.0557825
-0.0462933
-0.0559709
-0.0669101
-0.0767121
-0.0660862
-0.076858
-0.0660918
-0.0768331
-0.0668994
-0.112789
-0.123329
-0.111484
-0.123871
-0.11153
-0.1239
-0.112736
-0.100599
-0.088945
-0.100237
-0.0900253
-0.100217
-0.0900499
-0.100618
-0.112875
-0.123435
-0.11162
-0.124061
-0.11161
-0.124016
-0.112881
-0.164702
-0.176204
-0.162394
-0.177775
-0.162492
-0.177873
-0.164595
-0.150602
-0.136929
-0.149704
-0.138685
-0.149646
-0.138678
-0.150656
-0.164902
-0.176428
-0.162734
-0.178225
-0.162677
-0.178122
-0.164954
-0.228663
-0.241739
-0.223069
-0.247415
-0.223356
-0.247909
-0.228339
-0.210258
-0.191998
-0.207609
-0.19537
-0.207417
-0.195274
-0.210418
-0.229103
-0.242152
-0.224014
-0.248724
-0.223746
-0.248406
-0.229349
-0.316889
-0.448373
-0.332494
-0.353386
-0.334211
-0.354483
-0.315789
-0.295975
-0.263397
-0.292246
-0.27195
-0.291235
-0.271416
-0.296709
-0.317726
-0.448591
-0.337927
-0.356029
-0.3354
-0.354261
-0.319545
)
;

boundaryField
{
    fixedWalls
    {
        type            zeroGradient;
    }
    frontAndBack
    {
        type            empty;
    }
    right
    {
        type            fixedValue;
        value           uniform 0;
    }
    left
    {
        type            zeroGradient;
    }
    model
    {
        type            zeroGradient;
    }
}


// ************************************************************************* //
