/*--------------------------------*- C++ -*----------------------------------*\
  =========                 |
  \\      /  F ield         | OpenFOAM: The Open Source CFD Toolbox
   \\    /   O peration     | Website:  https://openfoam.org
    \\  /    A nd           | Version:  7
     \\/     M anipulation  |
\*---------------------------------------------------------------------------*/
FoamFile
{
    version     2.0;
    format      ascii;
    class       surfaceScalarField;
    location    "0.5";
    object      phi;
}
// * * * * * * * * * * * * * * * * * * * * * * * * * * * * * * * * * * * * * //

dimensions      [0 3 -1 0 0 0 0];

internalField   nonuniform List<scalar> 
1690
(
-3.17204e-07
3.17256e-07
-5.16049e-11
-0.000410063
0.000249332
3.58304e-05
4.45824e-05
3.57969e-05
4.4522e-05
-0.000509275
9.92114e-05
-0.000431567
-7.7708e-05
-0.000205646
-0.000225921
0.000106244
-0.00031189
0.000448344
-0.0003421
0.000777946
-0.000329602
0.00107187
-0.000293923
0.00134316
-0.000271288
0.00156475
-0.000221591
0.00193406
-0.000369311
0.0019292
4.86171e-06
-0.00256966
-2.55524e-06
-2.00509e-10
-1.02312e-06
3.57857e-06
-0.000383304
0.000422403
5.01286e-05
5.5088e-05
5.00497e-05
5.49657e-05
-0.000324354
4.02619e-05
-5.56877e-05
-0.000346374
0.000368435
-0.000650044
0.000894519
-0.000837974
0.00145132
-0.000898896
0.0019875
-0.000865785
0.00247407
-0.000780489
0.0029221
-0.000719327
0.00331523
-0.000614722
0.003849
-0.000903078
0.00415832
-0.00030446
-0.00291019
-7.16355e-06
-1.73713e-10
-6.05757e-07
7.76948e-06
0.000194446
0.000200908
9.1771e-06
4.57229e-06
8.99839e-06
4.30134e-06
0.000522518
-0.00028781
0.000937337
-0.000761194
0.00141485
-0.00112756
0.00192167
-0.00134479
0.00242762
-0.00140485
0.00290819
-0.00134636
0.00334595
-0.00121825
0.00374486
-0.00111823
0.00408695
-0.000956817
0.00439133
-0.00120745
0.00466756
-0.000580695
-0.0027415
-1.02253e-05
-1.59376e-09
1.28932e-06
8.93759e-06
0.00143401
-0.000492297
-0.000134276
-0.000235327
-0.000134891
-0.000236314
0.00200159
-0.000855388
0.00247226
-0.00123186
0.00287424
-0.00152954
0.00322269
-0.00169324
0.00352905
-0.0017112
0.00380367
-0.00162098
0.00405046
-0.00146503
0.00427373
-0.00134151
0.00446684
-0.00114993
0.00459052
-0.00133113
0.00473276
-0.000722934
-0.00250766
2.55107e-05
1.02737e-06
9.0652e-10
-2.50645e-05
2.98192e-10
2.50703e-05
-6.07291e-09
-2.5535e-05
4.08753e-10
2.56101e-05
-7.55282e-08
-2.63149e-05
7.24428e-10
2.65112e-05
-1.97001e-07
-2.77477e-05
1.582e-09
2.82517e-05
-5.05626e-07
-3.17007e-05
5.91017e-09
3.50677e-05
-3.373e-06
3.81824e-05
-0.000101451
0.000508803
-0.000171707
-4.43504e-08
3.83499e-05
1.30978e-05
1.33169e-05
-0.00010172
-0.000118179
-0.000118648
0.00367839
-0.00100771
-0.000647562
-0.000933749
-0.000647776
-0.000933887
0.00406829
-0.00124529
0.00433899
-0.00150256
0.00450654
-0.00169709
0.00459475
-0.00178145
0.00463427
-0.00175072
0.00465524
-0.00164196
0.00467544
-0.00148523
0.00469953
-0.00136559
0.00472964
-0.00118004
0.00471345
-0.00131495
0.00474032
-0.0007498
-0.00226635
0.0056025
-3.95678e-05
-2.83445e-06
4.96867e-06
-2.83241e-06
4.9748e-06
0.00563975
-6.15279e-05
2.27585e-06
9.83857e-06
2.28334e-06
9.88138e-06
0.00570157
-0.000106364
6.52728e-06
1.57088e-05
6.5374e-06
1.57701e-05
0.00580554
-0.000186589
1.40895e-05
2.71027e-05
1.41714e-05
2.72565e-05
0.00595122
-0.000322116
3.16927e-05
5.62242e-05
3.19149e-05
5.6597e-05
0.00602821
-0.000538721
9.05584e-05
0.000139599
9.12011e-05
0.000140379
0.00602565
-0.000792406
0.000193413
0.000203883
0.000193787
0.000203882
0.00603588
-0.00101794
0.006015
-0.00122442
0.00592879
-0.00141635
0.00578296
-0.00155126
0.00560018
-0.00159867
0.00541017
-0.00156071
0.00523807
-0.00146986
0.00509717
-0.00134433
0.00498521
-0.00125363
0.00490217
-0.00109701
0.00479881
-0.00121159
0.00475414
-0.000705124
-0.00201122
0.00705229
-6.22577e-05
0.0070744
-8.36346e-05
0.00710187
-0.000133834
0.00713449
-0.000219213
0.00715783
-0.000345448
0.00713123
-0.000512127
0.00704522
-0.000706393
0.00692124
-0.000893966
0.00675354
-0.00105672
0.00653043
-0.00119323
0.00626502
-0.00128586
0.00598564
-0.00131929
0.00571967
-0.00129473
0.00548545
-0.00123565
0.0052893
-0.00114818
0.00512506
-0.00108939
0.00499258
-0.000964521
0.00484829
-0.00106731
0.00476841
-0.000625243
-0.001742
0.00749995
-6.87363e-05
0.00750541
-8.90982e-05
0.00750649
-0.000134911
0.0074967
-0.00020943
0.007464
-0.000312748
0.00739171
-0.000439827
0.0072681
-0.000582784
0.00709811
-0.000723982
0.0068887
-0.000847303
0.00664107
-0.000945607
0.00636687
-0.00101166
0.00608737
-0.00103979
0.005823
-0.00103036
0.00558597
-0.000998615
0.00538054
-0.000942753
0.00519996
-0.000908805
0.00504674
-0.000811298
0.0048816
-0.000902167
0.00478372
-0.000527365
-0.00145756
0.00742733
-6.34438e-05
0.00742171
-8.34795e-05
0.00740886
-0.000122058
0.00738172
-0.000182289
0.00733122
-0.000262248
0.00724869
-0.000357294
0.00712699
-0.000461087
0.00696606
-0.000563053
0.00677114
-0.000652387
0.00654886
-0.000723325
0.006309
-0.000771793
0.00606587
-0.000796657
0.00583274
-0.000797231
0.00561696
-0.000782836
0.00542204
-0.000747831
0.00524182
-0.000728588
0.00508233
-0.000651801
0.0049063
-0.000726138
0.00479901
-0.000420079
-0.00115801
0.00716969
-5.56134e-05
0.00715901
-7.28022e-05
0.00714137
-0.000104422
0.00711025
-0.000151169
0.00705966
-0.000211653
0.00698426
-0.000281899
0.00687924
-0.000356061
0.00674409
-0.000427905
0.00658227
-0.000490564
0.00639967
-0.000540734
0.00620386
-0.000575984
0.0060038
-0.000596588
0.00580722
-0.000600654
0.00561869
-0.00059431
0.00544058
-0.000569716
0.00526767
-0.000555681
0.00510889
-0.000493023
0.004927
-0.000544245
0.00481429
-0.000307365
-0.000843367
0.00688828
-4.69368e-05
0.00687655
-6.10793e-05
0.00685826
-8.6125e-05
0.00682926
-0.000122169
0.00678467
-0.000167066
0.00672079
-0.000218025
0.00663524
-0.000270511
0.00652719
-0.000319853
0.00639897
-0.000362338
0.00625458
-0.000396351
0.00609906
-0.000420463
0.00593738
-0.000434902
0.00577433
-0.000437612
0.00561162
-0.000431595
0.00545156
-0.00040966
0.00528847
-0.000392591
0.00513341
-0.000337955
0.00494757
-0.000358411
0.00483128
-0.000191075
-0.000511904
0.00664022
-3.85797e-05
0.00662907
-4.99275e-05
0.00661241
-6.94601e-05
0.00658679
-9.65513e-05
0.00654947
-0.00012975
0.00649759
-0.000166145
0.00642939
-0.000202311
0.00634482
-0.000235275
0.0062452
-0.000262726
0.00613268
-0.00028383
0.00601044
-0.000298224
0.00588079
-0.000305251
0.00574614
-0.000302958
0.00560666
-0.000292112
0.00546401
-0.000267013
0.00531155
-0.000240128
0.00516164
-0.000188044
0.00497265
-0.000169423
0.00485283
-7.12597e-05
-0.000159162
0.00643608
-3.11943e-05
0.00642615
-3.99943e-05
0.00641158
-5.48913e-05
0.00639016
-7.51328e-05
0.00635958
-9.91688e-05
0.00631813
-0.000124696
0.00626472
-0.000148896
0.00619924
-0.000169795
0.00612247
-0.000185958
0.00603572
-0.000197084
0.00594026
-0.000202759
0.00583715
-0.000202144
0.00572682
-0.000192625
0.00560848
-0.000173776
0.00548293
-0.000141467
0.00534158
-9.87735e-05
0.00519889
-4.5354e-05
0.00500589
2.35816e-05
0.00488249
5.21384e-05
0.000222965
0.00626789
-2.44913e-05
0.00625928
-3.13832e-05
0.00624714
-4.2748e-05
0.0062296
-5.7594e-05
0.00620501
-7.45786e-05
0.0061723
-9.19898e-05
0.00613076
-0.000107353
0.00608059
-0.000119626
0.00602213
-0.000127499
0.00595597
-0.00013092
0.00588262
-0.000129408
0.00580176
-0.000121289
0.00571343
-0.000104289
0.00561518
-7.55319e-05
0.0055075
-3.37828e-05
0.00537928
2.94409e-05
0.00524608
8.78463e-05
0.00505088
0.000218788
0.00492481
0.000178199
0.00064715
0.00611263
-1.88834e-05
0.00610526
-2.4005e-05
0.00609509
-3.25853e-05
0.00608071
-4.32095e-05
0.00606115
-5.50253e-05
0.00603547
-6.63083e-05
0.00600369
-7.55652e-05
0.00596545
-8.13859e-05
0.00592157
-8.36276e-05
0.00587231
-8.16551e-05
0.00581734
-7.44412e-05
0.00575637
-6.03139e-05
0.00568834
-3.62625e-05
0.00561148
1.33047e-06
0.00552465
5.30441e-05
0.00541512
0.000138968
0.0052993
0.00020367
0.00510522
0.000412872
0.00498325
0.000300165
0.00112959
0.00591478
-1.40077e-05
0.00590857
-1.77922e-05
0.00590003
-2.40482e-05
0.00588838
-3.15584e-05
0.00587267
-3.93095e-05
0.00585243
-4.60715e-05
0.00582777
-5.09022e-05
0.00579924
-5.28576e-05
0.00576687
-5.12601e-05
0.00573111
-4.58926e-05
0.0056919
-3.52345e-05
0.00564877
-1.71788e-05
0.00560227
1.02365e-05
0.00554807
5.55334e-05
0.00548836
0.000112745
0.00540919
0.000218137
0.00532503
0.000287833
0.00515012
0.000587788
0.00505319
0.00039709
0.0016817
0.00555364
-9.62311e-06
0.00554823
-1.23763e-05
0.00554094
-1.67596e-05
0.00553098
-2.15973e-05
0.00551784
-2.61728e-05
0.00550152
-2.97566e-05
0.00548229
-3.1672e-05
0.00546068
-3.12417e-05
0.00543734
-2.79192e-05
0.00541261
-2.11641e-05
0.00538702
-9.64294e-06
0.00536165
8.19145e-06
0.0053355
3.63879e-05
0.00531032
8.07053e-05
0.0052866
0.000136467
0.0052568
0.00024794
0.00522851
0.000316117
0.00511959
0.000696713
0.00510082
0.000415863
0.00228126
0.00481122
-5.74552e-06
0.00480642
-7.58048e-06
0.00479983
-1.01629e-05
0.00479083
-1.25994e-05
0.00477938
-1.47206e-05
0.00476583
-1.62145e-05
0.00475055
-1.63839e-05
0.00473433
-1.50275e-05
0.00471802
-1.16108e-05
0.00470267
-5.81403e-06
0.00468965
3.37871e-06
0.00467987
1.79762e-05
0.00467693
3.93263e-05
0.00468435
7.32815e-05
0.00470525
0.000115572
0.00474681
0.000206379
0.00480365
0.000259273
0.00484997
0.000650394
0.00498661
0.000279222
0.00276634
0.00342118
-2.43091e-06
0.00341667
-3.07321e-06
0.00341046
-3.94828e-06
0.00340253
-4.67102e-06
0.00339297
-5.16592e-06
0.00338215
-5.38864e-06
0.00337082
-5.054e-06
0.00335983
-4.03941e-06
0.00335038
-2.15679e-06
0.00334367
8.92107e-07
0.00334169
5.36256e-06
0.00334748
1.21795e-05
0.00336499
2.18149e-05
0.00340117
3.71076e-05
0.00346089
5.58463e-05
0.00356935
9.79263e-05
0.00371455
0.00011407
0.00405728
0.000307665
0.00430978
2.67155e-05
0.00257451
0.00128112
0.00127805
0.0012741
0.00126943
0.00126426
0.00125887
0.00125382
0.00124978
0.00124762
0.00124852
0.00125388
0.00126606
0.00128787
0.00132498
0.00138083
0.00147875
0.00159282
0.00190049
0.0019272
2.79583e-05
-3.37229e-09
2.11536e-06
1.8216e-06
1.82125e-06
2.11724e-06
-1.66555e-10
-1.66262e-06
-8.92453e-07
-4.01357e-09
5.95007e-05
3.12416e-06
3.39877e-06
3.39577e-06
3.12538e-06
2.44004e-10
-3.16772e-07
3.16529e-07
2.79258e-05
2.11463e-06
1.81897e-06
1.82075e-06
2.11341e-06
2.54961e-06
1.81538e-10
-1.65909e-06
-8.90695e-07
5.94159e-05
3.12244e-06
3.3918e-06
3.39319e-06
3.1205e-06
9.36784e-05
-5.66373e-09
4.1914e-06
3.7828e-06
3.7824e-06
4.19993e-06
-9.6534e-10
-5.91184e-06
-1.25075e-06
-8.61845e-09
0.000131628
4.01844e-06
4.56397e-06
4.54692e-06
4.01719e-06
2.08789e-10
-1.02105e-06
3.57045e-06
9.35235e-05
4.18819e-06
3.77678e-06
3.78052e-06
4.19093e-06
7.14605e-06
-1.18269e-10
-5.89834e-06
-1.2476e-06
0.000131367
4.0152e-06
4.54951e-06
4.54176e-06
4.007e-06
0.000132082
-1.39315e-08
2.57786e-06
1.78036e-06
1.78112e-06
2.59798e-06
-3.27933e-09
-9.31178e-06
-9.1026e-07
-2.26139e-08
0.000130189
1.2933e-06
1.96847e-06
1.92422e-06
1.30171e-06
9.55467e-10
-6.01575e-07
7.74667e-06
0.00013167
2.56983e-06
1.76317e-06
1.77534e-06
2.57284e-06
1.01638e-05
-5.58264e-10
-9.2691e-06
-8.9418e-07
0.000129595
1.27843e-06
1.90626e-06
1.90056e-06
1.26846e-06
2.80827e-05
-2.8394e-08
-8.72301e-06
-7.37167e-06
-7.37738e-06
-8.66932e-06
-1.02461e-08
4.53506e-06
3.36576e-05
-5.29941e-08
-6.70434e-05
-2.68936e-05
-4.31539e-05
-4.32557e-05
-2.68446e-05
1.91982e-09
1.32794e-06
8.83397e-06
2.72744e-05
-8.8103e-06
-7.48812e-06
-7.43803e-06
-8.8614e-06
-3.89115e-05
1.33641e-08
4.91211e-06
3.39861e-05
-6.78974e-05
-2.69916e-05
-4.36331e-05
-4.34546e-05
-2.71155e-05
-1.09194e-10
-2.49417e-05
-1.22653e-07
0.000738183
4.10817e-10
-5.26021e-07
-1.28721e-06
-5.19633e-07
-1.27012e-06
1.05709e-09
0.000742577
-2.31724e-07
5.20838e-07
5.17001e-07
-2.32885e-07
8.9142e-10
2.55171e-05
1.02737e-06
2.50713e-05
-1.76972e-10
-2.49482e-05
-1.22928e-07
0.000738216
-5.30115e-07
-1.28314e-06
-5.27504e-07
-1.2661e-06
0.000742619
-2.3199e-07
5.21286e-07
5.16778e-07
-2.32705e-07
2.11936e-11
-2.53048e-05
-2.30238e-07
0.000744032
2.01388e-09
4.86315e-07
-8.51562e-08
-7.58467e-08
4.93698e-07
2.71489e-09
0.000751191
3.81176e-07
9.62235e-07
9.58917e-07
3.74499e-07
1.72432e-10
2.50742e-05
-3.06558e-09
2.55404e-05
-2.45287e-10
-2.53094e-05
-2.3083e-07
0.000744079
4.81182e-07
-7.09996e-08
-6.92512e-08
4.84672e-07
0.000751277
3.85836e-07
9.60889e-07
9.55057e-07
3.84375e-07
2.46637e-10
-2.59912e-05
-3.23992e-07
0.000755654
4.56676e-09
8.19247e-07
2.12324e-07
2.11781e-07
8.16487e-07
7.09557e-09
0.000767258
6.8471e-07
1.36749e-06
1.36596e-06
6.79405e-07
1.14656e-10
2.56212e-05
-8.08249e-08
2.63282e-05
-4.63748e-10
-2.60061e-05
-3.21615e-07
0.000755739
8.25175e-07
2.1076e-07
2.12323e-07
8.30949e-07
0.000767412
6.86114e-07
1.3714e-06
1.36293e-06
6.84484e-07
7.64698e-10
-2.72104e-05
-5.38077e-07
0.000777181
1.08692e-08
1.42374e-06
6.51883e-07
6.55683e-07
1.4245e-06
1.61424e-08
0.000797066
1.34037e-06
2.26465e-06
2.26817e-06
1.32894e-06
-1.4337e-10
2.65278e-05
-1.99418e-07
2.77824e-05
-1.08203e-09
-2.72373e-05
-5.43997e-07
0.000777417
1.42644e-06
6.55988e-07
6.57434e-07
1.43713e-06
0.00079744
1.34922e-06
2.2791e-06
2.26782e-06
1.35367e-06
3.89968e-09
-3.00125e-05
-1.69205e-06
0.000818997
2.51836e-08
3.06785e-06
1.79293e-06
1.81189e-06
3.06367e-06
3.87407e-08
0.000855904
3.62744e-06
6.0238e-06
6.0285e-06
3.59892e-06
-9.85987e-10
2.82978e-05
-5.14465e-07
3.18015e-05
-3.99518e-09
-3.00848e-05
-1.7127e-06
0.000819569
3.07664e-06
1.81199e-06
1.81299e-06
3.1089e-06
0.00085682
3.62696e-06
6.08455e-06
6.04124e-06
3.63195e-06
8.46415e-08
-6.18758e-05
-3.96595e-05
0.000896669
5.27579e-08
1.56399e-05
9.22621e-06
9.28355e-06
1.55906e-05
4.02517e-08
0.00091387
2.70322e-05
3.41349e-05
3.4259e-05
2.69315e-05
-5.73245e-09
3.51875e-05
-3.38033e-06
0.000101766
-5.26275e-09
-6.20798e-05
-3.96808e-05
0.000898203
1.56217e-05
9.28726e-06
9.25837e-06
1.57041e-05
0.00091543
2.69884e-05
3.45462e-05
3.46451e-05
2.70117e-05
5.1791e-07
-1.50496e-06
-3.93649e-10
3.10367e-06
-8.61797e-10
1.727e-10
1.50422e-06
-1.44866e-10
-5.18342e-07
8.35747e-07
3.17618e-07
-3.17195e-07
-4.73567e-10
8.3591e-07
-5.1883e-10
-7.34825e-10
3.10273e-06
-1.06686e-05
1.13256e-06
-8.65722e-11
1.37288e-05
-1.31659e-09
-1.02182e-06
3.5774e-06
-2.55512e-06
-6.53587e-10
1.16947e-10
1.06675e-05
-7.90794e-06
-3.20642e-10
-1.13244e-06
4.71133e-06
-7.90677e-06
-1.12197e-09
4.71043e-06
-7.81657e-10
1.37349e-05
-2.1031e-05
7.63018e-07
1.35878e-09
2.28472e-05
-2.70046e-09
-5.99552e-07
7.7619e-06
-7.16118e-06
-1.34194e-09
5.80474e-10
2.10403e-05
-1.98663e-05
-1.07374e-09
-7.64447e-07
8.535e-06
-1.98466e-05
-2.25975e-09
8.52544e-06
-1.59838e-09
2.28752e-05
-1.83151e-05
-2.51923e-06
1.28285e-08
1.21039e-05
-5.40202e-09
1.30732e-06
8.89951e-06
-1.02062e-05
-2.21902e-09
-2.21729e-09
1.83867e-05
-2.44668e-05
-4.59926e-09
2.50252e-06
6.43966e-06
-2.43833e-05
-4.13229e-09
6.37838e-06
-2.69246e-09
1.22327e-05
-4.89034e-07
2.32156e-11
-8.37261e-05
8.3689e-05
1.02648e-10
-1.16672e-10
4.92136e-07
2.50186e-05
8.37155e-05
1.50322e-09
2.55128e-05
1.03184e-06
1.49658e-11
2.50236e-05
6.30614e-11
8.36881e-05
8.4128e-12
9.27102e-08
-8.38497e-05
-2.17491e-10
8.4243e-05
4.8958e-10
2.50718e-05
-2.70479e-09
-2.5069e-05
2.27077e-10
9.5016e-11
-9.13504e-08
2.51615e-05
5.11361e-10
8.38387e-05
-8.39304e-05
2.51643e-05
2.74823e-10
-8.39279e-05
2.30573e-10
8.42408e-05
1.59969e-07
-8.53443e-05
-3.29257e-10
8.6003e-05
9.67134e-10
2.56136e-05
-7.56553e-08
-2.5538e-05
4.90853e-10
2.21144e-10
-1.57396e-07
2.57673e-05
8.51078e-10
8.53392e-05
-8.52033e-05
2.57731e-05
6.52751e-10
-8.52082e-05
7.96923e-10
8.5998e-05
3.03027e-07
-8.79632e-05
-8.67758e-10
8.90824e-05
2.38209e-09
2.65149e-05
-1.95254e-07
-2.63202e-05
1.26135e-09
5.01585e-10
-2.96737e-07
2.68075e-05
1.25434e-09
8.7949e-05
-8.74954e-05
2.68169e-05
1.48923e-09
-8.75035e-05
2.01878e-09
8.90759e-05
7.2095e-07
-9.30454e-05
-3.10807e-09
9.539e-05
5.41074e-09
2.82648e-05
-5.06136e-07
-2.77598e-05
2.71261e-09
1.80836e-09
-7.13932e-07
2.89638e-05
2.52913e-09
9.30095e-05
-9.17248e-05
2.89843e-05
3.26538e-09
-9.17417e-05
4.52831e-09
9.53562e-05
7.50228e-06
-0.000108164
-1.58541e-08
0.000116307
1.00451e-08
3.51482e-05
-3.40421e-06
-3.17425e-05
4.40162e-09
9.87349e-09
-7.45292e-06
4.25108e-05
9.19748e-09
0.000108068
-0.000102224
4.26549e-05
5.46561e-09
-0.000102284
8.81425e-09
0.00011619
-0.000205753
-4.9626e-08
0.000935598
-2.14573e-08
-2.11304e-08
0.000510051
-0.000173497
3.86526e-05
1.37445e-05
1.35978e-05
-0.000101711
-0.000119155
-0.000118872
-0.000205672
0.000935699
8.26586e-07
5.40177e-06
3.4533e-10
-8.743e-10
-1.6627e-06
-8.92014e-07
-5.65969e-10
-3.32292e-10
-8.26535e-07
2.92743e-10
-5.40192e-06
-5.21756e-10
-9.57629e-10
5.17953e-07
-1.50324e-06
-8.19301e-10
3.09988e-06
3.17104e-07
-3.17333e-07
5.37581e-10
1.50166e-06
1.58893e-10
-5.17339e-07
8.33712e-07
8.34692e-07
3.09691e-06
8.26396e-07
5.39517e-06
-1.19896e-10
-1.66055e-06
-8.91552e-07
2.55172e-06
-1.68928e-11
-8.25356e-07
8.03707e-10
-5.39194e-06
7.89225e-06
7.89666e-06
1.19685e-06
1.65522e-05
-1.66326e-10
-1.58882e-09
-5.9079e-06
-1.25311e-06
-1.12709e-09
-3.22375e-10
-1.20019e-06
-1.28629e-09
-1.65518e-05
-9.28086e-10
-1.89557e-09
-1.06554e-05
1.13248e-06
-8.53863e-10
1.37107e-05
-1.0214e-06
3.57269e-06
7.31821e-10
1.06472e-05
1.89645e-10
-1.13083e-06
4.7011e-06
4.70457e-06
1.37065e-05
1.19638e-06
1.6529e-05
-1.14405e-09
-5.90035e-06
-1.25274e-06
7.15185e-06
3.24412e-10
-1.19756e-06
-7.09213e-12
-1.65148e-05
1.98167e-05
1.98161e-05
7.68025e-07
2.33747e-05
8.88222e-10
-3.15968e-09
-9.29401e-06
-9.13359e-07
-2.11562e-09
-1.26544e-09
-7.7551e-07
-6.33439e-09
-2.34023e-05
-1.80684e-09
-4.01605e-09
-2.09929e-05
7.61467e-07
-9.75268e-10
2.27995e-05
-5.98672e-07
7.75014e-06
2.33949e-09
2.0976e-05
4.22092e-10
-7.5768e-07
8.50393e-06
8.51044e-06
2.27902e-05
7.64548e-07
2.33127e-05
-2.44355e-09
-9.27396e-06
-9.07546e-07
1.01788e-05
7.69472e-10
-7.65944e-07
-1.80774e-09
-2.32902e-05
2.43041e-05
2.42999e-05
-1.10258e-05
-3.76304e-06
7.77816e-09
-8.55193e-09
4.6446e-06
3.37136e-05
-1.85494e-08
-1.27517e-09
1.0976e-05
-2.65208e-08
3.62809e-06
-4.09181e-09
-1.48494e-08
-1.81892e-05
-2.55643e-06
3.42659e-09
1.19265e-05
1.32722e-06
8.85132e-06
4.26191e-09
1.81397e-05
-3.38551e-10
2.58696e-06
6.24736e-06
6.29185e-06
1.18687e-05
-1.10868e-05
-3.97959e-06
-7.30139e-09
4.79386e-06
3.38536e-05
5.13046e-09
1.11543e-05
-2.33239e-09
4.09977e-06
-7.85586e-08
8.35357e-05
-5.84614e-11
1.63036e-10
-2.49449e-05
-1.24352e-07
1.48463e-10
-2.01211e-11
7.69218e-08
-1.85878e-10
-8.3532e-05
1.06144e-10
2.19323e-10
-4.89199e-07
8.64136e-11
-8.37313e-05
8.36904e-05
2.55163e-05
1.03188e-06
-1.56492e-10
4.92286e-07
2.5025e-05
8.37242e-05
1.49075e-09
2.5027e-05
8.36891e-05
-7.86704e-08
8.35372e-05
1.90815e-11
-2.49483e-05
-1.24321e-07
2.50726e-05
-7.51943e-11
7.68622e-08
-2.83995e-10
-8.35332e-05
8.39319e-05
8.39296e-05
1.415e-07
8.44826e-05
-4.76809e-10
5.13777e-10
-2.53057e-05
-2.32735e-07
4.39682e-10
2.57908e-10
-1.43483e-07
5.14963e-11
-8.44713e-05
3.36009e-10
7.12355e-10
9.23668e-08
-8.38601e-05
7.81832e-11
8.42493e-05
2.50739e-05
-9.3706e-10
-6.32335e-11
-9.12145e-08
2.51655e-05
4.31149e-10
8.38574e-05
2.51665e-05
8.42509e-05
1.41537e-07
8.44943e-05
-1.4692e-10
-2.53085e-05
-2.32618e-07
2.55413e-05
5.37947e-11
-1.43965e-07
-3.43574e-10
-8.44912e-05
8.52216e-05
8.52171e-05
2.22617e-07
8.64645e-05
-7.36804e-10
1.29271e-09
-2.59954e-05
-3.25625e-07
1.08193e-09
4.34164e-10
-2.24368e-07
4.11592e-10
-8.64523e-05
8.20154e-10
1.74099e-09
1.60089e-07
-8.53527e-05
2.51492e-10
8.60186e-05
2.56197e-05
-7.78093e-08
-1.90232e-10
-1.58826e-07
2.57802e-05
3.38937e-10
8.53512e-05
2.57802e-05
8.60236e-05
2.2272e-07
8.64832e-05
8.7904e-11
-2.60037e-05
-3.2331e-07
2.63276e-05
-9.47803e-11
-2.25883e-07
-6.3071e-10
-8.64823e-05
8.75327e-05
8.75239e-05
4.00863e-07
9.00204e-05
-1.48521e-09
3.00874e-09
-2.72168e-05
-5.44465e-07
2.27092e-09
9.27394e-10
-4.03828e-07
1.35649e-09
-8.99995e-05
1.88659e-09
3.75761e-09
3.05193e-07
-8.7988e-05
7.37221e-10
8.91109e-05
2.6524e-05
-1.95267e-07
-5.59448e-10
-3.04304e-07
2.68326e-05
-8.80641e-11
8.79893e-05
2.68301e-05
8.91229e-05
3.99237e-07
9.00632e-05
7.18773e-10
-2.72307e-05
-5.44441e-07
2.77763e-05
-5.39141e-10
-4.04128e-07
-1.42348e-09
-9.00732e-05
9.18097e-05
9.17889e-05
1.05838e-06
9.79571e-05
-4.52884e-09
6.55037e-09
-3.00415e-05
-1.70098e-06
3.95626e-09
2.76411e-09
-1.05143e-06
6.97972e-09
-9.78991e-05
3.88868e-09
7.2581e-09
7.19831e-07
-9.30981e-05
2.23117e-09
9.54581e-05
2.82851e-05
-5.06992e-07
-1.83299e-09
-7.23512e-07
2.90232e-05
-1.32211e-09
9.31085e-05
2.90063e-05
9.54962e-05
1.05503e-06
9.80331e-05
3.43599e-09
-3.00627e-05
-1.70414e-06
3.17668e-05
-2.57326e-09
-1.059e-06
-4.47938e-09
-9.80725e-05
0.000102449
0.000102373
1.94419e-05
0.000123903
-1.62959e-08
1.09511e-08
-6.21037e-05
-3.95346e-05
3.35886e-09
1.84949e-08
-1.93835e-05
1.74192e-08
-0.000123721
1.15904e-08
-3.45285e-09
7.47761e-06
-0.000108252
1.06736e-08
0.000116395
3.51463e-05
-3.38088e-06
-1.02066e-08
-7.49028e-06
4.2688e-05
-7.64572e-09
0.000108363
4.26192e-05
0.000116588
1.93332e-05
0.000124034
2.6832e-08
-6.1937e-05
-3.97759e-05
-2.69728e-08
-1.93648e-05
-2.81022e-08
-0.000124262
)
;

boundaryField
{
    fixedWalls
    {
        type            calculated;
        value           uniform 0;
    }
    frontAndBack
    {
        type            empty;
        value           nonuniform 0();
    }
    right
    {
        type            calculated;
        value           nonuniform List<scalar> 
25
(
-2.65389e-05
-0.00556721
-0.0070296
-0.00749347
-0.00743262
-0.00717752
-0.00689695
-0.00664858
-0.00644347
-0.00627459
-0.00611824
-0.00591966
-0.00555803
-0.0048151
-0.00342449
-0.00128355
-2.65454e-05
-0.000737441
-0.000737415
-2.65437e-05
-8.39629e-05
-8.39769e-05
-8.39815e-05
-8.3964e-05
-2.65472e-05
)
;
    }
    left
    {
        type            calculated;
        value           nonuniform List<scalar> 
20
(
0.00449886
0.00449886
0.00449887
0.00449892
0.00449901
0.00449901
0.00449919
0.00449928
0.00449946
0.00449964
0.00449982
0.00450009
0.00450036
0.00450063
0.00450081
0.00450108
0.00450126
0.00450153
0.00450162
0.00450171
)
;
    }
    model
    {
        type            calculated;
        value           uniform 0;
    }
}


// ************************************************************************* //
