/*--------------------------------*- C++ -*----------------------------------*\
  =========                 |
  \\      /  F ield         | OpenFOAM: The Open Source CFD Toolbox
   \\    /   O peration     | Website:  https://openfoam.org
    \\  /    A nd           | Version:  7
     \\/     M anipulation  |
\*---------------------------------------------------------------------------*/
FoamFile
{
    version     2.0;
    format      ascii;
    class       volVectorField;
    location    "0.5";
    object      U;
}
// * * * * * * * * * * * * * * * * * * * * * * * * * * * * * * * * * * * * * //

dimensions      [0 1 -1 0 0 0 0];

internalField   nonuniform List<vector> 
733
(
(-0.000312836 0.000603072 0.013662)
(-0.0636227 0.0271975 3.93697e-08)
(-0.0984798 0.0147144 0)
(-0.0997335 -0.000994547 0)
(-0.0672452 -0.0155262 7.9835e-24)
(-0.0112716 -0.0235745 0)
(0.0557392 -0.0263491 0)
(0.12359 -0.025179 0)
(0.185982 -0.022222 0)
(0.243166 -0.0206901 0)
(0.287412 -0.0181 0)
(0.355849 -0.0298436 0)
(0.421058 -0.00382064 0)
(0.290129 -0.401501 6.05653e-25)
(-0.00123725 0.0110173 0.0149083)
(-0.0734449 0.0761841 -9.86362e-10)
(-0.0812788 0.0244684 -6.77299e-22)
(-0.0465013 -0.0343583 1.16171e-21)
(0.0264899 -0.0813137 -4.52501e-22)
(0.125673 -0.10902 -2.50294e-24)
(0.235208 -0.118145 0)
(0.345128 -0.11352 0)
(0.447243 -0.101584 -2.96632e-24)
(0.544133 -0.0937189 0)
(0.616518 -0.0779341 0)
(0.734149 -0.130112 -6.60401e-24)
(0.754271 0.000207998 6.60398e-24)
(0.922155 -0.583954 -3.29913e-25)
(-0.000730807 0.0269375 0.0177771)
(0.00378488 0.0862138 1.11751e-08)
(0.0668164 -0.0111289 -5.88705e-23)
(0.145825 -0.1088 -3.97419e-23)
(0.236991 -0.182406 3.2995e-22)
(0.335323 -0.226296 -2.65675e-22)
(0.435861 -0.239638 9.37433e-23)
(0.534126 -0.230224 -1.00632e-22)
(0.625619 -0.207728 2.96705e-24)
(0.712099 -0.190628 7.72965e-23)
(0.778379 -0.161326 -7.72966e-23)
(0.8619 -0.218037 0)
(0.879891 -0.0987541 0)
(0.978629 -0.566135 -2.87287e-25)
(0.0016184 0.035032 0.0250932)
(0.215667 -0.0172076 -2.03431e-06)
(0.343559 -0.112116 5.49229e-22)
(0.453963 -0.204841 1.93229e-22)
(0.542191 -0.276267 5.91031e-22)
(0.614133 -0.317408 -6.29176e-22)
(0.676663 -0.326522 5.10101e-23)
(0.732945 -0.311424 -1.31634e-22)
(0.784591 -0.281553 -1.57853e-22)
(0.833115 -0.257419 1.57847e-22)
(0.871209 -0.219722 -6.70887e-23)
(0.914795 -0.262099 6.70869e-23)
(0.916564 -0.139621 1.04143e-23)
(0.977624 -0.529225 -1.06606e-23)
(0.0911257 0.00021937 0.000594444)
(0.0897064 1.19168e-05 0.00314324)
(0.0915639 -2.92631e-05 0.00613153)
(0.0945625 -0.000135553 0.00943604)
(0.100164 -0.000468564 0.0132335)
(0.116993 -0.00470603 0.01836)
(0.382621 -0.119728 0.0288496)
(0.685647 -0.182694 -5.39552e-06)
(0.775265 -0.233204 -4.92501e-22)
(0.849108 -0.291061 -1.93691e-22)
(0.893954 -0.337769 6.31233e-23)
(0.915152 -0.361508 0)
(0.923956 -0.359467 -4.54762e-23)
(0.927563 -0.338444 -6.43082e-23)
(0.931092 -0.30558 -3.10559e-23)
(0.936446 -0.279602 1.45568e-22)
(0.939755 -0.24038 -7.95488e-23)
(0.950824 -0.270371 7.95452e-23)
(0.931552 -0.15314 -2.02669e-23)
(0.973116 -0.480999 2.07462e-23)
(1.11879 -0.00652709 -2.00312e-09)
(1.12196 -0.00922114 1.06558e-08)
(1.1299 -0.0154001 1.19958e-08)
(1.14412 -0.0270632 -6.49842e-08)
(1.16472 -0.0479628 3.44245e-08)
(1.19326 -0.0915471 1.06383e-06)
(1.22355 -0.161514 -2.9033e-06)
(1.21536 -0.210295 -1.57255e-06)
(1.21035 -0.255014 2.23312e-22)
(1.20105 -0.298854 0)
(1.17752 -0.33154 -2.95505e-22)
(1.14092 -0.344628 2.99896e-22)
(1.10043 -0.337267 1.84259e-24)
(1.06221 -0.316474 5.08221e-24)
(1.03071 -0.287366 -4.10393e-24)
(1.00631 -0.265706 0)
(0.985115 -0.231121 7.99441e-23)
(0.97554 -0.255462 -9.1324e-23)
(0.94091 -0.148425 3.43624e-23)
(0.973342 -0.429953 -2.39228e-23)
(1.40878 -0.0110098 5.93146e-23)
(1.4098 -0.0146501 -9.2088e-23)
(1.41318 -0.0229583 7.05955e-23)
(1.41854 -0.0378635 0)
(1.42452 -0.0617019 -1.79175e-21)
(1.42867 -0.097397 3.49673e-22)
(1.42525 -0.145088 1.86419e-21)
(1.4057 -0.188929 -3.00446e-22)
(1.37491 -0.228063 -6.11068e-22)
(1.33434 -0.261951 -9.04461e-23)
(1.28366 -0.284813 2.19824e-22)
(1.22613 -0.292471 -4.62352e-24)
(1.16948 -0.285785 -1.76017e-24)
(1.11801 -0.270663 -5.08306e-24)
(1.07497 -0.24955 0)
(1.03979 -0.234974 8.80259e-23)
(1.00827 -0.20721 -2.58626e-23)
(0.989534 -0.229095 6.58546e-24)
(0.946346 -0.134357 -8.03091e-23)
(0.976034 -0.37669 -8.84064e-24)
(1.49708 -0.0132552 0)
(1.49731 -0.0169318 -2.38822e-23)
(1.49766 -0.0253894 -1.28834e-22)
(1.49705 -0.0399969 0)
(1.49402 -0.0616551 0)
(1.4864 -0.0904711 9.59887e-22)
(1.47052 -0.125435 4.95185e-22)
(1.44286 -0.159778 1.81759e-22)
(1.40453 -0.189622 2.67766e-22)
(1.35742 -0.213332 -8.30035e-23)
(1.30364 -0.228593 -7.76642e-23)
(1.24606 -0.234136 2.99032e-23)
(1.19034 -0.230698 1.28864e-24)
(1.13907 -0.222021 -2.21627e-23)
(1.09481 -0.208317 3.28962e-23)
(1.05702 -0.199647 2.12589e-23)
(1.0214 -0.17787 0)
(0.998799 -0.197551 -6.32294e-23)
(0.95018 -0.115895 7.92019e-23)
(0.980144 -0.320939 1.51523e-23)
(1.48183 -0.0131734 0)
(1.48175 -0.0165913 -3.11661e-23)
(1.48047 -0.0242372 2.29668e-22)
(1.47696 -0.0368201 -2.67278e-22)
(1.47021 -0.0544758 0)
(1.45869 -0.0765535 -1.31104e-21)
(1.44032 -0.101712 -4.94754e-22)
(1.41321 -0.126497 1.31184e-22)
(1.37772 -0.147917 0)
(1.33516 -0.164636 -1.08779e-23)
(1.28787 -0.175779 -1.38514e-23)
(1.23801 -0.180982 4.47503e-24)
(1.18959 -0.180396 7.03211e-24)
(1.14386 -0.176304 2.2162e-23)
(1.10275 -0.167809 -6.57257e-23)
(1.06606 -0.163081 -2.12597e-23)
(1.02936 -0.146106 2.61814e-23)
(1.00555 -0.163018 0)
(0.953103 -0.094988 0)
(0.984781 -0.26232 -2.1409e-23)
(1.43028 -0.011802 0)
(1.43001 -0.0148358 5.58577e-23)
(1.42801 -0.0213175 -1.00822e-22)
(1.42358 -0.0314446 3.30336e-22)
(1.41616 -0.0450217 -3.02373e-22)
(1.40471 -0.0613151 3.50664e-22)
(1.38791 -0.0791358 0)
(1.36468 -0.096537 2.03309e-22)
(1.33521 -0.111698 1.25116e-22)
(1.30031 -0.123692 1.4493e-23)
(1.26189 -0.132065 1.02242e-23)
(1.22125 -0.136713 0)
(1.1812 -0.137505 2.1361e-23)
(1.14204 -0.135865 -3.62453e-23)
(1.10529 -0.13039 6.03947e-23)
(1.07112 -0.127577 0)
(1.03474 -0.114024 -2.61814e-23)
(1.0111 -0.127 -2.79688e-24)
(0.9556 -0.0727811 3.44699e-23)
(0.989784 -0.200825 2.22916e-23)
(1.37433 -0.0100448 0)
(1.37395 -0.0126102 -2.46919e-23)
(1.37178 -0.0178606 0)
(1.3674 -0.0257137 0)
(1.36055 -0.0358897 1.48057e-22)
(1.35049 -0.0477505 1.11051e-22)
(1.33638 -0.0603228 -2.0899e-22)
(1.31754 -0.0723772 -9.17294e-23)
(1.29416 -0.0828515 1.64227e-22)
(1.26668 -0.0912049 4.88471e-23)
(1.23646 -0.0972036 -7.45564e-25)
(1.20406 -0.100822 7.45547e-25)
(1.17146 -0.101765 -4.27441e-23)
(1.1384 -0.100862 -4.18133e-24)
(1.10601 -0.0966018 1.79089e-23)
(1.07478 -0.0939099 5.0639e-24)
(1.0393 -0.0824884 2.63666e-23)
(1.01654 -0.0901066 1.62046e-23)
(0.958187 -0.0497453 -1.71527e-23)
(0.995439 -0.136206 -1.12904e-23)
(1.32505 -0.00832072 2.85452e-24)
(1.32463 -0.0104026 0)
(1.32257 -0.0145306 -3.97056e-23)
(1.31862 -0.0205078 1.53894e-23)
(1.31271 -0.0280357 9.14449e-23)
(1.30432 -0.0365619 0)
(1.2929 -0.045305 9.78466e-23)
(1.27801 -0.0534434 0)
(1.25982 -0.0603774 -7.24349e-23)
(1.23852 -0.0658512 -8.7602e-23)
(1.21503 -0.0697454 0)
(1.1894 -0.0720063 0)
(1.16303 -0.0722267 4.14412e-23)
(1.13529 -0.0707955 0)
(1.10693 -0.0663784 1.70999e-23)
(1.07874 -0.0623035 -2.63886e-23)
(1.04436 -0.0518936 -4.93339e-23)
(1.02292 -0.0525546 -5.92424e-23)
(0.961473 -0.0260281 3.46029e-23)
(1.00237 -0.0678861 1.09194e-23)
(1.28452 -0.00675431 -3.903e-24)
(1.2841 -0.00839686 -1.38421e-23)
(1.28226 -0.0115774 6.351e-23)
(1.27886 -0.0160592 -2.48539e-23)
(1.27394 -0.0215451 5.72691e-23)
(1.26713 -0.0275584 0)
(1.25807 -0.0334836 0)
(1.24646 -0.0387603 -5.70929e-23)
(1.23247 -0.0430536 -2.16029e-23)
(1.2161 -0.0462583 8.41628e-23)
(1.19801 -0.0482867 1.36071e-24)
(1.17786 -0.0490084 1.15026e-24)
(1.1567 -0.0479557 -2.15874e-23)
(1.13363 -0.0451381 4.06774e-24)
(1.10903 -0.039582 -8.62512e-24)
(1.08397 -0.0328627 3.62016e-23)
(1.05088 -0.0224989 0)
(1.03118 -0.014415 2.85158e-23)
(0.966132 -0.00164624 -3.46016e-23)
(1.01145 0.00531507 -1.0919e-23)
(1.25113 -0.00537667 2.31436e-24)
(1.25074 -0.00664786 1.79049e-23)
(1.24914 -0.00905895 -5.53185e-23)
(1.24631 -0.0123669 1.28481e-23)
(1.2423 -0.0162901 -4.52598e-23)
(1.23687 -0.0204241 0)
(1.22978 -0.0242882 -2.70784e-23)
(1.22082 -0.0274918 1.08534e-22)
(1.21018 -0.0298385 -2.43714e-23)
(1.19774 -0.031275 -1.73648e-23)
(1.18399 -0.0316921 -2.06943e-23)
(1.16839 -0.03086 0)
(1.1517 -0.0282795 -6.94325e-24)
(1.13295 -0.0235844 3.49375e-24)
(1.11207 -0.016256 -2.07217e-23)
(1.09051 -0.00582981 1.25296e-24)
(1.05902 0.00534139 -1.35221e-23)
(1.04185 0.0246317 0)
(0.972844 0.0237059 0)
(1.02383 0.0859683 0)
(1.22022 -0.00418249 8.08161e-25)
(1.21987 -0.00515414 -9.63176e-24)
(1.21851 -0.00695879 2.97435e-23)
(1.21617 -0.00935911 -1.01061e-23)
(1.21294 -0.0120976 1.01081e-23)
(1.20865 -0.0148397 0)
(1.20314 -0.017214 -2.34969e-23)
(1.19631 -0.0189438 -2.32891e-23)
(1.18833 -0.0198962 0)
(1.17904 -0.0200121 -1.14832e-23)
(1.16885 -0.0191253 -6.86614e-24)
(1.15711 -0.0168984 -5.41209e-24)
(1.14445 -0.0128105 7.06558e-24)
(1.12999 -0.00602331 7.67099e-25)
(1.11313 0.00324504 1.33316e-24)
(1.09601 0.0181003 -1.3332e-24)
(1.06723 0.0306488 1.35209e-23)
(1.05435 0.0642252 -1.12668e-23)
(0.981536 0.049629 0)
(1.04045 0.177375 0)
(1.18083 -0.00314991 -8.0664e-25)
(1.18049 -0.00388829 1.82033e-24)
(1.17932 -0.00522357 -1.69471e-23)
(1.17739 -0.00692545 -7.66426e-24)
(1.17477 -0.00876862 -8.16979e-24)
(1.17136 -0.0104898 -1.00887e-23)
(1.16708 -0.0118117 2.34949e-23)
(1.16189 -0.0125387 1.20438e-23)
(1.15598 -0.0125586 -1.15886e-23)
(1.14921 -0.0117799 1.94345e-23)
(1.14194 -0.00996664 7.4652e-24)
(1.13362 -0.00669291 -1.39256e-24)
(1.12481 -0.00138598 -3.61612e-24)
(1.1149 0.00705943 7.08129e-24)
(1.10266 0.0179312 8.87946e-24)
(1.09198 0.0372265 0)
(1.06794 0.0510561 2.79159e-24)
(1.06352 0.10194 1.12614e-23)
(0.98945 0.0733516 0)
(1.06094 0.28224 0)
(1.10879 -0.00225024 0)
(1.10845 -0.00280792 0)
(1.1074 -0.00377247 5.9163e-24)
(1.10573 -0.00492442 1.16532e-23)
(1.10353 -0.00608399 1.50982e-23)
(1.10074 -0.00706383 -9.3193e-24)
(1.09734 -0.0076721 2.192e-23)
(1.09337 -0.00777361 -1.11348e-23)
(1.08903 -0.00725825 2.28308e-23)
(1.08426 -0.00599937 0)
(1.0794 -0.00371656 1.31381e-23)
(1.07423 6.16308e-05 -3.80935e-24)
(1.06908 0.00578095 2.11077e-23)
(1.06434 0.0148193 -3.12352e-23)
(1.05781 0.0262113 1.2416e-24)
(1.05691 0.0484449 1.02332e-23)
(1.04046 0.0623941 -2.21427e-24)
(1.05357 0.131815 -5.72364e-25)
(0.984883 0.0879392 6.98505e-24)
(1.07986 0.397739 1.04523e-25)
(0.960651 -0.00145896 -1.44904e-25)
(0.960258 -0.00186114 0)
(0.959234 -0.00250009 -4.69719e-25)
(0.957715 -0.00318809 2.9591e-24)
(0.955766 -0.00381113 8.48556e-24)
(0.953376 -0.00425981 0)
(0.950604 -0.00441729 -5.17674e-24)
(0.947544 -0.00419483 -1.74601e-23)
(0.944413 -0.0034878 0)
(0.941275 -0.0021662 -1.3875e-23)
(0.938514 3.18317e-05 -2.06137e-23)
(0.936195 0.0034724 1.30603e-23)
(0.934746 0.00848499 -1.12458e-23)
(0.93573 0.0165347 9.88899e-24)
(0.936074 0.0264534 4.05917e-24)
(0.948275 0.0475524 -2.62467e-23)
(0.942426 0.058977 -2.29818e-24)
(0.988281 0.140099 -1.04083e-23)
(0.933352 0.0808576 -7.08683e-24)
(1.07434 0.504733 0)
(0.683201 -0.000769387 1.42939e-25)
(0.682704 -0.000997805 9.91168e-25)
(0.681678 -0.00130263 -3.48022e-24)
(0.680286 -0.00157583 0)
(0.678597 -0.00178195 4.40751e-24)
(0.676625 -0.00187761 3.92417e-25)
(0.674485 -0.00180273 -5.70275e-24)
(0.672306 -0.0015033 2.36141e-23)
(0.670311 -0.000909071 6.65149e-24)
(0.668694 5.62275e-05 1.38735e-23)
(0.667831 0.0015515 -8.03654e-24)
(0.668133 0.00377237 2.69474e-25)
(0.670262 0.00698626 -4.7756e-24)
(0.675925 0.0120609 1.09519e-23)
(0.683437 0.0183335 -1.74071e-23)
(0.705692 0.0321505 1.74485e-23)
(0.713786 0.0382093 2.71004e-24)
(0.800007 0.105514 1.27062e-23)
(0.767693 0.00627851 0)
(0.984585 0.57737 0)
(0.255992 -0.000228981 0)
(0.255517 -0.000292899 0)
(0.2548 -0.000351058 0)
(0.25395 -0.000383222 0)
(0.252987 -0.000392587 0)
(0.251955 -0.000367902 -4.71318e-24)
(0.250928 -0.000287971 0)
(0.250026 -0.000133908 -4.3736e-24)
(0.249412 0.000112768 -8.10801e-24)
(0.249267 0.000468004 3.81025e-24)
(0.249862 0.000981419 6.20093e-24)
(0.251548 0.00172434 2.30179e-24)
(0.254833 0.00277663 0)
(0.260653 0.00439842 0)
(0.269316 0.00651318 0)
(0.285719 0.010786 -2.71593e-24)
(0.300742 0.0137702 6.20384e-24)
(0.355073 0.0299852 -3.48789e-24)
(0.407076 0.0124631 0)
(0.307318 0.412822 0)
(-0.0133979 0.0122479 0.0158117)
(-0.00110198 0.0073411 0.0147512)
(-0.0216785 0.032986 0.0169451)
(-0.000312231 0.000601736 -0.0136587)
(-0.013379 0.0122356 -0.0158117)
(-0.00109963 0.00732481 -0.0147472)
(-0.0216452 0.0329416 -0.016945)
(-0.0252673 0.0626764 0.0173855)
(-0.00168205 0.0234999 0.0165315)
(-0.0272307 0.0909897 0.0183203)
(-0.00123483 0.0109923 -0.0149031)
(-0.0252202 0.062585 -0.0173853)
(-0.00167778 0.0234438 -0.016522)
(-0.0271604 0.0908313 -0.0183199)
(-0.0129331 0.109102 0.0207521)
(-0.00163339 0.0357071 0.0220917)
(-0.00638596 0.114435 0.0221996)
(-0.000726117 0.0268636 -0.0177649)
(-0.0128183 0.108846 -0.020752)
(-0.00160846 0.0355351 -0.0220686)
(-0.00615474 0.114054 -0.0221993)
(0.0495827 0.0694829 0.0263419)
(0.0843116 -0.0267408 0.0387173)
(0.151535 -0.0100163 0.0260956)
(0.00168002 0.0347703 -0.0250612)
(0.0501015 0.0688382 -0.0263406)
(0.0861665 -0.0279162 -0.0384907)
(0.152506 -0.0106599 -0.0261029)
(0.0893715 -0.000261597 0.00237529)
(0.590305 0.000625351 0.000916194)
(0.591497 -0.00329159 0.00228673)
(0.0911402 0.000219302 -0.00059464)
(0.0893878 -0.000262267 -0.00237668)
(0.590332 0.000624301 -0.000916181)
(0.591526 -0.00329446 -0.00228673)
(0.0909935 -0.000342099 0.00528955)
(0.593469 -0.00107973 0.0039465)
(0.597234 -0.0049137 0.00553638)
(0.0897211 9.70037e-06 -0.00314534)
(0.0910108 -0.000342873 -0.00529351)
(0.593504 -0.00108641 -0.00394646)
(0.597284 -0.00492916 -0.00553636)
(0.0935949 -0.000443909 0.00850779)
(0.601855 -0.0028603 0.0073937)
(0.608049 -0.00748303 0.00916303)
(0.0915889 -2.93152e-05 -0.00613612)
(0.0936406 -0.000446678 -0.00851799)
(0.601926 -0.00288256 -0.00739372)
(0.608154 -0.00752265 -0.0091629)
(0.0982489 -0.00069979 0.0121594)
(0.616482 -0.00644871 0.0112539)
(0.627348 -0.0127957 0.0133265)
(0.0946138 -0.00013824 -0.00944777)
(0.0983587 -0.000708922 -0.0121813)
(0.616636 -0.00650939 -0.0112538)
(0.627586 -0.0128968 -0.0133266)
(0.109359 -0.00236869 0.0167887)
(0.643061 -0.0150388 0.0158519)
(0.662698 -0.0271868 0.0185432)
(0.100303 -0.000481563 -0.0132612)
(0.109678 -0.00243738 -0.0168389)
(0.643424 -0.0152062 -0.0158512)
(0.663204 -0.0274882 -0.0185418)
(0.200834 -0.0605011 0.0386238)
(0.694103 -0.0472327 0.0215872)
(0.732066 -0.0904367 0.0243852)
(0.117443 -0.00484378 -0.0184297)
(0.20187 -0.06189 -0.0386693)
(0.694649 -0.0479021 -0.0215854)
(0.732327 -0.0917017 -0.0243732)
(-0.0034422 0.00665121 -1.22936e-06)
(-0.00211309 0.00294819 0.0171542)
(-0.000626751 0.00183574 0.0149234)
(-0.000310045 0.000602356 -1.71336e-06)
(-0.000620733 0.00183176 -2.20022e-06)
(-0.00211094 0.00294954 -1.59479e-06)
(-0.00344946 0.00665841 0.0195427)
(-0.00686121 0.0381835 -3.50744e-06)
(-0.00122897 0.0110132 -2.85829e-06)
(-0.0060606 0.030325 0.0197699)
(-0.00146557 0.0146693 0.0152261)
(-0.00604875 0.0303206 -2.84519e-06)
(-0.00145552 0.0146642 -3.71293e-06)
(-0.00687724 0.0381944 0.0201668)
(-0.00469278 0.0700908 -1.20652e-05)
(-0.000716184 0.0269232 -5.07049e-06)
(-0.00368136 0.066125 0.0235416)
(-0.00113813 0.0291431 0.0189351)
(-0.00365851 0.0660987 -4.69261e-06)
(-0.00112483 0.0291063 -9.10562e-06)
(-0.00472621 0.0701622 0.0247866)
(0.017127 0.0529448 -5.6431e-05)
(0.00163682 0.0349452 -1.35834e-05)
(0.00865006 0.0689951 0.0319381)
(0.00519978 0.0293928 0.0281598)
(0.00872417 0.0687835 -1.95214e-05)
(0.00520707 0.029278 -2.57107e-05)
(0.0170093 0.0532288 0.0338339)
(0.267304 -0.000441844 2.27541e-07)
(0.0894762 -4.40791e-05 0.00115506)
(0.269316 0.000694327 0.000839526)
(0.091144 0.000218793 3.16465e-06)
(0.0894768 -4.28289e-05 -2.02665e-07)
(0.267304 -0.000441387 0.0015026)
(0.269351 0.000683724 4.74387e-06)
(0.268661 -0.000813241 2.0905e-06)
(0.0897162 1.23181e-05 1.79797e-06)
(0.0898546 -0.000165819 0.00384688)
(0.268186 2.2748e-05 0.00415236)
(0.0898616 -0.000165218 1.23976e-06)
(0.268207 2.0201e-05 2.25276e-06)
(0.268651 -0.000811759 0.0050196)
(0.273886 -0.00120014 3.8117e-06)
(0.0915743 -2.78079e-05 3.05775e-06)
(0.0919118 -0.000240614 0.00690857)
(0.272858 -0.000248333 0.0080735)
(0.0919244 -0.000241205 2.93035e-06)
(0.27288 -0.000252272 4.95914e-06)
(0.27387 -0.00119544 0.00902173)
(0.282809 -0.00208644 9.56785e-06)
(0.0945782 -0.000136509 6.71873e-06)
(0.0953426 -0.000410066 0.0103131)
(0.280721 -0.00088666 0.0124305)
(0.0953634 -0.000411962 6.68637e-06)
(0.280755 -0.000898175 9.73387e-06)
(0.282778 -0.00207429 0.0135027)
(0.300271 -0.00463757 2.55045e-05)
(0.100205 -0.000474058 1.46072e-05)
(0.102125 -0.000924792 0.0143091)
(0.295375 -0.00266171 0.0175172)
(0.102188 -0.000931555 1.73356e-05)
(0.295461 -0.0026931 2.10241e-05)
(0.30017 -0.00459739 0.0188832)
(0.351359 -0.0293155 8.33808e-05)
(0.117183 -0.00475831 3.74022e-05)
(0.132187 -0.0113947 0.0205464)
(0.33218 -0.0157758 0.0246123)
(0.13252 -0.0115316 5.61311e-05)
(0.332467 -0.0159461 5.70083e-05)
(0.351029 -0.0289826 0.0269832)
(0.439531 -0.126912 0.0279296)
(0.753809 -0.153575 0.0258344)
(0.770472 -0.183463 0.0245277)
(0.38138 -0.119684 -0.029171)
(0.439327 -0.126709 -0.028024)
(0.753488 -0.153858 -0.0259184)
(0.770392 -0.183333 -0.0245408)
(-0.00486265 0.0138302 -3.58166e-06)
(-0.00109421 0.00734239 -2.45358e-06)
(-0.000976443 0.00440299 0.0147142)
(-0.00550694 0.0202931 0.0195296)
(-0.000972379 0.00440159 -2.88519e-06)
(-0.0054964 0.0202951 -1.82106e-06)
(-0.00487092 0.0138332 0.0193808)
(-0.0034419 0.00664345 -5.02724e-06)
(-0.000310664 0.000601454 -2.37511e-06)
(-0.00210876 0.00294383 -0.0171482)
(-0.00062547 0.00183121 -0.0149193)
(-0.000621387 0.00182886 -2.24527e-06)
(-0.00211097 0.00294624 -3.83591e-06)
(-0.00344206 0.00664615 -0.0195362)
(-0.00486064 0.013813 -2.87585e-06)
(-0.00109451 0.00733251 -2.50097e-06)
(-0.000974473 0.00439287 -0.01471)
(-0.00549461 0.0202539 -0.0195219)
(-0.000972733 0.00439554 -1.65208e-06)
(-0.00549375 0.02027 -5.25869e-06)
(-0.00486069 0.0138079 -0.0193741)
(-0.00697605 0.049248 -4.05352e-06)
(-0.00167263 0.0234952 -7.1351e-06)
(-0.00151837 0.019129 0.0157517)
(-0.0074995 0.0580632 0.0217299)
(-0.00150694 0.019115 -4.20738e-06)
(-0.00747587 0.0580498 -9.47673e-06)
(-0.00699403 0.0492735 0.0208832)
(-0.00685805 0.0381348 -6.44767e-06)
(-0.00122959 0.0109988 -2.88751e-06)
(-0.00604735 0.0302667 -0.019761)
(-0.00146249 0.0146365 -0.0152196)
(-0.0060465 0.0302817 -5.50161e-06)
(-0.00145603 0.0146451 -3.24388e-06)
(-0.00686034 0.0381169 -0.0201568)
(-0.00697429 0.0491808 -8.15017e-06)
(-0.00167392 0.0234643 -3.30824e-06)
(-0.00151511 0.019085 -0.0157441)
(-0.00747455 0.0579297 -0.021715)
(-0.00150814 0.0190903 -4.21193e-06)
(-0.00747272 0.0579685 -5.41526e-06)
(-0.00697542 0.049169 -0.0208707)
(-0.00425491 0.0745328 -1.20289e-05)
(-0.00162676 0.0356536 -1.89107e-05)
(-0.00131005 0.0320422 0.0203363)
(-0.00424024 0.0786217 0.0280884)
(-0.00129051 0.0319773 -1.0596e-05)
(-0.00417807 0.0784966 -3.17202e-05)
(-0.0043014 0.07466 0.0265071)
(-0.00468768 0.0699615 -1.09192e-05)
(-0.000718162 0.0268848 -7.81696e-06)
(-0.00365219 0.065948 -0.0235225)
(-0.00113065 0.0290486 -0.0189198)
(-0.00365747 0.0659903 -1.38443e-05)
(-0.00112637 0.0290589 -6.82938e-06)
(-0.00468262 0.0699358 -0.0247632)
(-0.00424364 0.0743606 -1.69579e-05)
(-0.0016228 0.0355744 -5.21886e-06)
(-0.00129837 0.0319133 -0.0203175)
(-0.00412365 0.0782164 -0.0280481)
(-0.00129106 0.0319159 -8.83767e-06)
(-0.00414617 0.0782836 -6.06321e-06)
(-0.00423512 0.074355 -0.0264766)
(0.0506831 0.0148929 -5.76307e-05)
(0.0848534 -0.0270781 -0.000102994)
(0.0244964 0.0100687 0.0328199)
(0.115914 -0.0267186 0.0386575)
(0.0246411 0.0098294 -1.98796e-05)
(0.116465 -0.027096 -0.000153877)
(0.0504406 0.0153088 0.0374386)
(0.0172906 0.0524782 -6.37389e-06)
(0.00165829 0.034825 -1.43951e-05)
(0.00887908 0.0683834 -0.0318831)
(0.00536239 0.0289237 -0.0281053)
(0.00881193 0.0684654 -2.57212e-05)
(0.00526127 0.0290623 -8.23518e-06)
(0.017445 0.0522888 -0.0337476)
(0.0509876 0.0142612 -5.64238e-05)
(0.0853836 -0.0276178 -9.37337e-05)
(0.0250358 0.00914415 -0.0326542)
(0.117738 -0.0279724 -0.0384418)
(0.0247874 0.00941719 -3.36303e-05)
(0.116968 -0.0277262 -4.77012e-05)
(0.0513572 0.0139924 -0.0372781)
(0.266771 -0.000304614 6.45961e-07)
(0.089385 -0.000261413 1.02048e-07)
(0.0889911 -4.36043e-05 0.00172715)
(0.267399 -0.00118877 0.00308173)
(0.0889967 -4.25249e-05 2.75131e-07)
(0.267416 -0.00118781 4.01799e-08)
(0.266762 -0.000305566 0.0022977)
(0.26732 -0.000441343 5.65017e-07)
(0.0911524 0.000218879 -3.01732e-06)
(0.0894908 -4.39843e-05 -0.0011557)
(0.269343 0.000694813 -0.000839636)
(0.0894847 -4.2625e-05 7.52848e-07)
(0.26733 -0.000441561 -0.0015034)
(0.269367 0.000684511 -4.66128e-06)
(0.266785 -0.000303537 5.24718e-07)
(0.0893936 -0.000261389 1.1111e-06)
(0.0890058 -4.37031e-05 -0.00172816)
(0.267424 -0.00118997 -0.00308328)
(0.0890052 -4.22479e-05 6.12337e-07)
(0.267432 -0.00118712 1.51674e-06)
(0.266786 -0.000305675 -0.00229887)
(0.26988 -0.000608493 2.9648e-06)
(0.0910027 -0.000341966 1.52254e-06)
(0.0903022 -0.000119086 0.00455684)
(0.271303 -0.00158086 0.00689128)
(0.0903055 -0.000118692 2.01697e-06)
(0.271321 -0.00158246 2.20479e-06)
(0.269867 -0.000605624 0.00600036)
(0.268682 -0.000811916 1.6459e-06)
(0.089725 1.17424e-05 1.37938e-07)
(0.0898688 -0.000165423 -0.00384933)
(0.26822 2.02298e-05 -0.004154)
(0.089869 -0.000164427 1.12617e-06)
(0.268226 2.09818e-05 -6.9774e-07)
(0.268684 -0.000813571 -0.00502352)
(0.269904 -0.000607835 1.00926e-06)
(0.0910126 -0.000341394 2.31385e-06)
(0.0903164 -0.000119453 -0.00455986)
(0.271345 -0.00158657 -0.00689704)
(0.0903144 -0.000118264 9.15019e-07)
(0.271347 -0.00158244 3.11774e-06)
(0.269906 -0.000609227 -0.00600457)
(0.275919 -0.00103102 6.00422e-06)
(0.0936118 -0.000445158 4.4364e-06)
(0.0926255 -0.000186177 0.00769267)
(0.278008 -0.002172 0.0111195)
(0.0926365 -0.000186957 4.2323e-06)
(0.278037 -0.00217916 6.28381e-06)
(0.275894 -0.00102395 0.0101201)
(0.27393 -0.00119936 3.55638e-06)
(0.0915893 -2.68142e-05 1.21113e-06)
(0.0919475 -0.00024265 -0.00691491)
(0.272912 -0.00025257 -0.00808007)
(0.0919437 -0.000240805 2.82222e-06)
(0.272912 -0.000250133 1.21797e-06)
(0.27394 -0.00120387 -0.00902932)
(0.275974 -0.00102922 3.97744e-06)
(0.0936372 -0.00044387 5.20378e-06)
(0.0926673 -0.000187871 -0.00770065)
(0.278106 -0.00218796 -0.0111335)
(0.0926607 -0.000185892 3.0374e-06)
(0.278098 -0.00217914 6.96463e-06)
(0.275985 -0.001034 -0.0101305)
(0.28649 -0.00205746 1.33234e-05)
(0.0982851 -0.000703251 1.02128e-05)
(0.0966425 -0.00036339 0.011209)
(0.290067 -0.00356642 0.0159739)
(0.0966653 -0.000366661 9.51101e-06)
(0.290128 -0.00358623 1.50516e-05)
(0.286444 -0.00203941 0.0147831)
(0.282898 -0.0020856 9.13821e-06)
(0.0946075 -0.000134653 4.66704e-06)
(0.0954131 -0.000414522 -0.0103274)
(0.280839 -0.000903588 -0.0124472)
(0.0954006 -0.000410168 6.88844e-06)
(0.280827 -0.000895566 6.065e-06)
(0.282923 -0.00209848 -0.0135219)
(0.286605 -0.00205621 1.08782e-05)
(0.0983385 -0.000700499 1.1329e-05)
(0.0967306 -0.000369907 -0.0112274)
(0.290302 -0.00361356 -0.0160054)
(0.0967122 -0.000364548 8.13623e-06)
(0.290263 -0.00358818 1.52523e-05)
(0.286638 -0.00207209 -0.0148082)
(0.308303 -0.00582427 3.35745e-05)
(0.109479 -0.00238694 2.78136e-05)
(0.105183 -0.0011638 0.0154592)
(0.316886 -0.00992729 0.0224247)
(0.105264 -0.00117562 2.29468e-05)
(0.317082 -0.0100202 4.37404e-05)
(0.30815 -0.00576295 0.0206146)
(0.300466 -0.0046446 2.26097e-05)
(0.100271 -0.000470299 1.24852e-05)
(0.102319 -0.000948331 -0.0143442)
(0.295681 -0.00272384 -0.017556)
(0.102267 -0.000929118 1.73546e-05)
(0.295628 -0.00269238 1.72023e-05)
(0.300555 -0.00469589 -0.018932)
(0.308536 -0.00583621 2.99711e-05)
(0.109576 -0.00238862 2.79332e-05)
(0.105419 -0.00120116 -0.0155034)
(0.31752 -0.0101736 -0.0224965)
(0.105347 -0.00117371 2.21942e-05)
(0.317349 -0.0100529 3.56406e-05)
(0.308649 -0.00591132 -0.0206783)
(0.384255 -0.0563968 9.06623e-05)
(0.201345 -0.0615805 0.000198422)
(0.166553 -0.0289265 0.0244609)
(0.409531 -0.0946972 0.0347813)
(0.167252 -0.0293989 0.000110194)
(0.409909 -0.0961754 3.52825e-05)
(0.383874 -0.0556501 0.0292491)
(0.351593 -0.0295423 6.6898e-05)
(0.11727 -0.0047734 3.63082e-05)
(0.132889 -0.0117238 -0.0206411)
(0.333007 -0.0162319 -0.0247185)
(0.132592 -0.0115882 5.62956e-05)
(0.332751 -0.0160465 5.14514e-05)
(0.352042 -0.0298731 -0.0271157)
(0.384222 -0.0569592 0.000121736)
(0.201637 -0.0619479 2.237e-05)
(0.167127 -0.0297493 -0.0246453)
(0.409991 -0.0969331 -0.0347511)
(0.167075 -0.0295676 0.000137197)
(0.40989 -0.0967653 6.88346e-05)
(0.384599 -0.0574995 -0.02942)
)
;

boundaryField
{
    fixedWalls
    {
        type            noSlip;
    }
    frontAndBack
    {
        type            empty;
    }
    right
    {
        type            zeroGradient;
    }
    left
    {
        type            fixedValue;
        value           uniform (0.9 0 0);
    }
    model
    {
        type            noSlip;
    }
}


// ************************************************************************* //
