/*--------------------------------*- C++ -*----------------------------------*\
  =========                 |
  \\      /  F ield         | OpenFOAM: The Open Source CFD Toolbox
   \\    /   O peration     | Website:  https://openfoam.org
    \\  /    A nd           | Version:  7
     \\/     M anipulation  |
\*---------------------------------------------------------------------------*/
FoamFile
{
    version     2.0;
    format      ascii;
    class       volScalarField;
    location    "0.5";
    object      p;
}
// * * * * * * * * * * * * * * * * * * * * * * * * * * * * * * * * * * * * * //

dimensions      [0 2 -2 0 0 0 0];

internalField   nonuniform List<scalar> 
733
(
-0.0905192
-0.0848571
-0.0652987
-0.0405044
-0.0194955
-0.00618323
-0.00136061
-0.00411761
-0.0130185
-0.027161
-0.0467857
-0.0737822
-0.114528
-0.224544
-0.0933034
-0.0929638
-0.0745989
-0.0508172
-0.0296206
-0.0152806
-0.00918599
-0.0106641
-0.0183711
-0.0312961
-0.049168
-0.0725699
-0.102279
-0.136039
-0.118509
-0.110844
-0.0872103
-0.0609886
-0.0375309
-0.0214798
-0.0140483
-0.0141331
-0.0199848
-0.0301113
-0.0433591
-0.0584872
-0.0738129
-0.0835779
-0.179772
-0.134886
-0.100895
-0.0707906
-0.0453447
-0.0279494
-0.0192548
-0.0176759
-0.0211172
-0.0277662
-0.0360611
-0.0442981
-0.0506874
-0.0507446
-0.00287662
-0.0186875
-0.0370727
-0.0569202
-0.0788856
-0.105029
-0.188241
-0.134998
-0.102269
-0.073439
-0.0493945
-0.0327242
-0.023728
-0.0207967
-0.0219193
-0.0253468
-0.0295618
-0.0330306
-0.0345156
-0.0307193
-0.0083208
-0.0260261
-0.0453457
-0.0663922
-0.0894628
-0.111914
-0.122458
-0.1109
-0.0892526
-0.0668149
-0.0477601
-0.03415
-0.0261261
-0.0225452
-0.0219078
-0.0228238
-0.0240477
-0.0243758
-0.0230989
-0.0177773
-0.00768627
-0.0237495
-0.0407103
-0.0579563
-0.0746481
-0.0886063
-0.0948096
-0.0885808
-0.0742286
-0.0581669
-0.0442096
-0.0338059
-0.0270191
-0.0231727
-0.0212942
-0.0203865
-0.019505
-0.0177452
-0.0147771
-0.0086415
-0.0067407
-0.0204852
-0.0343754
-0.0477006
-0.0595694
-0.0685309
-0.0723707
-0.0690577
-0.0603245
-0.0498045
-0.0401357
-0.032437
-0.0268609
-0.0230606
-0.0204349
-0.0183015
-0.0159773
-0.0127917
-0.00867083
-0.00185582
-0.00577449
-0.0172611
-0.0283818
-0.0386297
-0.0473367
-0.0535947
-0.0563618
-0.0548524
-0.0498382
-0.0432088
-0.0366314
-0.0309696
-0.0264266
-0.0228325
-0.0198069
-0.0168845
-0.0135764
-0.00937299
-0.0043739
0.00314541
-0.00492644
-0.0145146
-0.0234729
-0.0315455
-0.0382953
-0.0431372
-0.0455264
-0.045169
-0.0424647
-0.0384119
-0.0340204
-0.0299013
-0.0262418
-0.0229555
-0.0197859
-0.0164007
-0.0124377
-0.00748241
-0.00175524
0.00653059
-0.00423418
-0.0123318
-0.0197103
-0.0263031
-0.0318335
-0.0359089
-0.0382219
-0.0386641
-0.0374675
-0.0351759
-0.0323831
-0.0294886
-0.026631
-0.0237538
-0.0206597
-0.0170843
-0.012732
-0.00722405
-0.000862073
0.00827391
-0.00368642
-0.0106488
-0.0169017
-0.0224965
-0.0272651
-0.0309357
-0.0333213
-0.0343809
-0.0342555
-0.0332475
-0.0316986
-0.0298523
-0.02779
-0.0254519
-0.0226573
-0.0191596
-0.0146791
-0.00881421
-0.00189317
0.00820616
-0.00325968
-0.00937182
-0.0148339
-0.0197641
-0.0240661
-0.0275472
-0.0300855
-0.0316658
-0.0323756
-0.032386
-0.0318899
-0.0310246
-0.0298194
-0.0281952
-0.0259606
-0.0228484
-0.0185514
-0.0126011
-0.00521634
0.00598518
-0.00293202
-0.00841631
-0.0133304
-0.0178263
-0.0218543
-0.0252771
-0.0280142
-0.0300636
-0.0314833
-0.0323742
-0.0328454
-0.0329687
-0.0327371
-0.0320527
-0.0307017
-0.0283693
-0.0246547
-0.0188859
-0.0113971
0.000964215
-0.002685
-0.00771204
-0.0122531
-0.0164734
-0.0203541
-0.0237995
-0.0267612
-0.029249
-0.031309
-0.0330088
-0.034417
-0.0355758
-0.0364671
-0.0369903
-0.0369239
-0.0359187
-0.0334693
-0.0286858
-0.0215528
-0.00819298
-0.00250352
-0.00720455
-0.0114997
-0.0155555
-0.0193721
-0.0228879
-0.0260832
-0.0289819
-0.0316303
-0.0340864
-0.0364085
-0.0386418
-0.0407935
-0.0428021
-0.044491
-0.0454969
-0.0452882
-0.0426871
-0.0372037
-0.0239296
-0.0023765
-0.00685512
-0.0110017
-0.0149731
-0.01878
-0.0223906
-0.0258108
-0.0290791
-0.0322494
-0.0353846
-0.0385531
-0.0418277
-0.0452884
-0.0489726
-0.0527922
-0.0565905
-0.0599284
-0.0615236
-0.0604287
-0.0505652
-0.00229679
-0.0066391
-0.010716
-0.0146629
-0.0184952
-0.022206
-0.0258199
-0.0293868
-0.0329676
-0.0366376
-0.0404891
-0.0446416
-0.0492574
-0.0544733
-0.0605302
-0.0676116
-0.0757626
-0.0842814
-0.0924264
-0.0933738
-0.00226348
-0.00654753
-0.0106187
-0.0145847
-0.0184625
-0.0222641
-0.0260209
-0.0297827
-0.0336107
-0.0375846
-0.0418158
-0.046463
-0.0517136
-0.0579247
-0.0655461
-0.0752525
-0.0880788
-0.105395
-0.129028
-0.155563
-0.00228777
-0.00659603
-0.0107148
-0.0147319
-0.0186721
-0.0225539
-0.026402
-0.0302521
-0.0341495
-0.0381612
-0.042392
-0.046983
-0.0521698
-0.0582894
-0.0658631
-0.0757747
-0.0896136
-0.110163
-0.144943
-0.249139
-0.0914127
-0.0905463
-0.0929272
-0.0904693
-0.0913686
-0.0904911
-0.0928768
-0.0987842
-0.10828
-0.10607
-0.09324
-0.0987166
-0.108166
-0.105966
-0.124288
-0.155369
-0.13506
-0.118369
-0.124131
-0.155087
-0.134804
-0.167611
-0.224947
-0.170032
-0.179424
-0.167262
-0.222726
-0.169463
-0.0139136
-0.00424897
-0.0122164
-0.00287781
-0.0139244
-0.00425268
-0.0122265
-0.0319445
-0.0215027
-0.0303004
-0.018706
-0.0319781
-0.0215211
-0.0303275
-0.0514389
-0.0405257
-0.0502596
-0.0371098
-0.0515225
-0.0405718
-0.0503307
-0.0729037
-0.0615736
-0.0729734
-0.0570187
-0.073094
-0.0616816
-0.0731328
-0.0978283
-0.0865154
-0.101689
-0.0791288
-0.0983932
-0.0867599
-0.102065
-0.200357
-0.118176
-0.137892
-0.105805
-0.203738
-0.118699
-0.13832
-0.0911179
-0.0912219
-0.0897473
-0.0905117
-0.0897373
-0.0912213
-0.091108
-0.0984083
-0.0932941
-0.0952135
-0.0968292
-0.0952169
-0.0968077
-0.098416
-0.128666
-0.118494
-0.120192
-0.128452
-0.120202
-0.128385
-0.128727
-0.184685
-0.179669
-0.175032
-0.201431
-0.174929
-0.201123
-0.185234
-0.00658886
-0.00643738
-0.0030576
-0.00290867
-0.00643238
-0.00658854
-0.00309387
-0.0231372
-0.0187034
-0.0230296
-0.0190474
-0.0230345
-0.0190687
-0.023129
-0.0419939
-0.0370904
-0.0417726
-0.0375971
-0.0417815
-0.0376225
-0.0419848
-0.0626334
-0.0569534
-0.0620916
-0.0577462
-0.0621159
-0.0577844
-0.0626045
-0.0866185
-0.0789627
-0.0848329
-0.0805229
-0.0849284
-0.0806047
-0.0865038
-0.12202
-0.105333
-0.116251
-0.110362
-0.116768
-0.110696
-0.121391
-0.177561
-0.153061
-0.149
-0.187776
-0.177185
-0.152908
-0.148845
-0.0907359
-0.0905272
-0.0893069
-0.0920737
-0.0892883
-0.0920648
-0.0907489
-0.0910846
-0.090482
-0.0911704
-0.0896982
-0.0897075
-0.0911884
-0.0910558
-0.090702
-0.0904944
-0.0892563
-0.0920141
-0.0892579
-0.0920281
-0.0906946
-0.10342
-0.108221
-0.10169
-0.108875
-0.101669
-0.108814
-0.10342
-0.0983597
-0.0932572
-0.0951445
-0.0967533
-0.0951752
-0.0967646
-0.0983337
-0.103363
-0.108163
-0.101598
-0.108749
-0.10162
-0.108746
-0.103319
-0.139875
-0.155159
-0.14043
-0.150465
-0.140345
-0.150182
-0.139927
-0.128576
-0.118428
-0.120034
-0.128276
-0.120127
-0.128308
-0.128527
-0.139774
-0.155063
-0.140207
-0.150118
-0.140262
-0.150055
-0.139656
-0.207316
-0.224234
-0.228021
-0.199474
-0.227841
-0.198395
-0.20768
-0.184488
-0.179569
-0.174586
-0.200945
-0.174791
-0.200987
-0.184576
-0.20699
-0.223418
-0.227238
-0.197754
-0.227622
-0.197803
-0.206621
-0.0102226
-0.0139098
-0.00988676
-0.0139373
-0.00988664
-0.0139341
-0.0102185
-0.00659196
-0.00290913
-0.00644223
-0.00305811
-0.00643507
-0.00659413
-0.00309397
-0.0102273
-0.0139164
-0.00989448
-0.0139491
-0.00989123
-0.0139412
-0.0102264
-0.0278275
-0.0319456
-0.0274123
-0.0320504
-0.0274241
-0.0320529
-0.0278124
-0.0231521
-0.0187141
-0.0230502
-0.0190642
-0.0230466
-0.0190786
-0.0231554
-0.027843
-0.0319657
-0.0274377
-0.0320864
-0.0274391
-0.032075
-0.0278394
-0.0471419
-0.0514515
-0.0465082
-0.0517888
-0.0465269
-0.0518045
-0.0471198
-0.0420236
-0.0371128
-0.0418223
-0.0376392
-0.0418112
-0.0376473
-0.0420338
-0.0471817
-0.0515006
-0.0465709
-0.0518776
-0.046564
-0.0518581
-0.0471871
-0.0684945
-0.0729451
-0.067341
-0.0738809
-0.0673858
-0.0739328
-0.068447
-0.0627052
-0.0570099
-0.0622091
-0.0578527
-0.0621817
-0.0578464
-0.0627304
-0.0685844
-0.0730434
-0.0674965
-0.0740888
-0.0674688
-0.074044
-0.0686119
-0.094062
-0.0980441
-0.0908709
-0.102013
-0.0910121
-0.102293
-0.0939063
-0.0867735
-0.0790772
-0.085153
-0.0807889
-0.0850634
-0.0807365
-0.0868492
-0.0942466
-0.0982017
-0.0913012
-0.102639
-0.0911685
-0.1025
-0.0943782
-0.131856
-0.20329
-0.136946
-0.156253
-0.137834
-0.156978
-0.131269
-0.12235
-0.105509
-0.117519
-0.111241
-0.117001
-0.110957
-0.122704
-0.132276
-0.203477
-0.139835
-0.157835
-0.138418
-0.156911
-0.133308
)
;

boundaryField
{
    fixedWalls
    {
        type            zeroGradient;
    }
    frontAndBack
    {
        type            empty;
    }
    right
    {
        type            fixedValue;
        value           uniform 0;
    }
    left
    {
        type            zeroGradient;
    }
    model
    {
        type            zeroGradient;
    }
}


// ************************************************************************* //
