/*--------------------------------*- C++ -*----------------------------------*\
  =========                 |
  \\      /  F ield         | OpenFOAM: The Open Source CFD Toolbox
   \\    /   O peration     | Website:  https://openfoam.org
    \\  /    A nd           | Version:  7
     \\/     M anipulation  |
\*---------------------------------------------------------------------------*/
FoamFile
{
    version     2.0;
    format      ascii;
    class       surfaceScalarField;
    location    "0.5";
    object      phi;
}
// * * * * * * * * * * * * * * * * * * * * * * * * * * * * * * * * * * * * * //

dimensions      [0 3 -1 0 0 0 0];

internalField   nonuniform List<scalar> 
1690
(
-1.72788e-07
1.72854e-07
-6.65967e-11
-0.000124699
5.41984e-05
1.55532e-05
1.97235e-05
1.55325e-05
1.96918e-05
-7.41676e-05
-5.05318e-05
5.16384e-05
-0.000125806
0.000209164
-0.000157526
0.000363652
-0.000154488
0.000497625
-0.000133973
0.00060912
-0.000111495
0.000706297
-9.71773e-05
0.000804025
-9.77279e-05
0.000925045
-0.00012102
0.00110824
-0.000183199
0.00142169
-0.000313447
-0.00107767
-1.32231e-06
-8.9382e-11
-4.12394e-07
1.73479e-06
-3.39953e-05
1.87558e-05
1.63649e-05
1.84102e-05
1.63163e-05
1.83465e-05
0.000139337
-0.000223864
0.000403959
-0.000390428
0.000701323
-0.00045489
0.000987029
-0.000440193
0.00123825
-0.000385191
0.00145092
-0.000324165
0.00163361
-0.000279871
0.00180205
-0.000266172
0.00197589
-0.000294858
0.00217919
-0.000386493
0.00240023
-0.000534487
-0.00117681
-3.21985e-06
-1.46253e-10
-2.21381e-07
3.44138e-06
0.000248598
-0.000198553
-5.81051e-06
-9.68396e-06
-5.91793e-06
-9.87631e-06
0.00053554
-0.000510807
0.000855087
-0.000709975
0.00117402
-0.000773818
0.00146907
-0.000735249
0.00172785
-0.000643973
0.00194806
-0.000544367
0.00213464
-0.000466455
0.00229558
-0.000427111
0.00243694
-0.00043622
0.00255609
-0.000505643
0.00263219
-0.000610584
-0.00104399
-4.38964e-06
-9.92851e-10
1.09181e-06
3.29882e-06
0.000865431
-0.000600005
-8.67511e-05
-0.000144782
-8.71257e-05
-0.000145321
0.00119664
-0.000842017
0.00147413
-0.000987467
0.00171292
-0.0010126
0.00192126
-0.000943594
0.00210336
-0.000826071
0.00226124
-0.000702252
0.00239614
-0.000601353
0.00250849
-0.00053946
0.00259539
-0.000523119
0.00264632
-0.000556569
0.00264676
-0.000611029
-0.000896633
1.27636e-05
4.60637e-07
3.58963e-10
-1.25985e-05
1.5195e-10
1.26089e-05
-1.05729e-08
-1.28277e-05
1.68519e-10
1.28673e-05
-3.97555e-08
-1.31984e-05
3.15287e-10
1.33036e-05
-1.05465e-07
-1.3905e-05
7.3505e-10
1.41788e-05
-2.74597e-07
-1.60506e-05
3.00271e-09
1.8101e-05
-2.05334e-06
2.82646e-05
-5.88227e-05
0.000291271
-0.000129861
-1.91979e-08
2.83758e-05
1.5014e-05
1.51532e-05
-5.89861e-05
-6.50609e-05
-6.53294e-05
0.00198598
-0.000849747
-0.000365509
-0.000502555
-0.000365591
-0.000502581
0.00215226
-0.0010083
0.00225756
-0.00109276
0.00232932
-0.00108436
0.00238871
-0.00100299
0.00244692
-0.000884284
0.00250652
-0.000761844
0.00256417
-0.000659007
0.00261358
-0.000588873
0.00264657
-0.000556109
0.00265162
-0.00056162
0.00261932
-0.000578721
-0.000776768
0.00289739
-2.383e-05
-1.43453e-07
2.8709e-06
-1.42392e-07
2.87471e-06
0.00292076
-3.66359e-05
1.5844e-06
5.0317e-06
1.58988e-06
5.05442e-06
0.00296122
-6.44435e-05
3.88281e-06
8.08824e-06
3.88916e-06
8.12068e-06
0.0030311
-0.000116112
8.42248e-06
1.46344e-05
8.46723e-06
1.47162e-05
0.00313446
-0.000209318
1.96525e-05
3.31537e-05
1.9778e-05
3.33733e-05
0.00319736
-0.000373753
6.01454e-05
9.4848e-05
6.05544e-05
9.52997e-05
0.00317553
-0.000592438
0.000145879
0.000161195
0.000146023
0.000161169
0.00311821
-0.000792424
0.00304164
-0.000931729
0.00294712
-0.00099824
0.00285393
-0.000991175
0.0027786
-0.000927658
0.00272833
-0.000834011
0.00270111
-0.000734631
0.00268963
-0.000647528
0.00268384
-0.000583074
0.00267306
-0.000545333
0.00264673
-0.000535285
0.00259847
-0.000530469
-0.000677745
0.00370461
-3.61024e-05
0.0037192
-5.12254e-05
0.00374005
-8.52995e-05
0.00376742
-0.000143476
0.00379124
-0.00023314
0.0037784
-0.000360908
0.00370691
-0.000520952
0.00358784
-0.000673355
0.00344006
-0.000783952
0.00328111
-0.000839291
0.00313038
-0.000840442
0.00300256
-0.000799833
0.00290332
-0.000734771
0.00283086
-0.000662173
0.00277814
-0.000594811
0.00273628
-0.000541212
0.00269592
-0.000504971
0.0026485
-0.000487864
0.00259007
-0.000472045
-0.000587222
0.00400444
-4.11671e-05
0.00400928
-5.60594e-05
0.00401234
-8.8362e-05
0.00400945
-0.000140583
0.00399149
-0.000215186
0.00394334
-0.000312756
0.00385107
-0.000428675
0.00371952
-0.000541806
0.00356437
-0.00062881
0.00340219
-0.000677112
0.00324835
-0.000686601
0.0031135
-0.000664985
0.00300192
-0.000623188
0.0029123
-0.000572545
0.00283967
-0.000522191
0.00277732
-0.000478861
0.00271833
-0.000445972
0.00265663
-0.000426169
0.00259004
-0.000405456
-0.000496781
0.00402882
-4.098e-05
0.00402696
-5.42082e-05
0.00401997
-8.13689e-05
0.00400325
-0.000123865
0.00397014
-0.000182071
0.00391279
-0.000255404
0.00382426
-0.000340145
0.00370666
-0.000424207
0.00357023
-0.000492378
0.00342799
-0.00053487
0.00329095
-0.000549561
0.00316662
-0.000540659
0.00305822
-0.000514784
0.00296509
-0.000479417
0.00288421
-0.000441315
0.0028109
-0.000405553
0.00274044
-0.000375508
0.00266865
-0.000354379
0.00259481
-0.00033161
-0.000401676
0.00394468
-3.78598e-05
0.0039393
-4.88283e-05
0.00392845
-7.05227e-05
0.00390778
-0.000103199
0.00387295
-0.000147235
0.00381957
-0.000202027
0.0037439
-0.000264479
0.00364718
-0.000327483
0.00353567
-0.000380864
0.00341799
-0.00041719
0.00330184
-0.000433412
0.0031926
-0.000431425
0.00309267
-0.000414855
0.00300216
-0.000388904
0.00291895
-0.000358103
0.00284014
-0.000326743
0.00276251
-0.000297885
0.00268308
-0.000274943
0.00260219
-0.000250719
-0.000299288
0.00383571
-3.32854e-05
0.003829
-4.21121e-05
0.00381722
-5.8746e-05
0.00379741
-8.3385e-05
0.00376618
-0.000116005
0.00372075
-0.000156604
0.00365934
-0.000203069
0.0035823
-0.000250441
0.00349333
-0.000291892
0.00339781
-0.000321673
0.00330097
-0.00033657
0.00320651
-0.000336961
0.00311652
-0.000324863
0.003031
-0.000303389
0.00294879
-0.000275891
0.00286776
-0.000245718
0.00278552
-0.000215647
0.00269971
-0.000189133
0.00261172
-0.000162725
-0.000187467
0.00373384
-2.82444e-05
0.00372691
-3.51823e-05
0.00371586
-4.77016e-05
0.00369824
-6.57641e-05
0.00367203
-8.97898e-05
0.00363511
-0.000119688
0.00358613
-0.000154088
0.00352532
-0.000189632
0.00345469
-0.000221258
0.00337735
-0.000244333
0.00329691
-0.000256136
0.00321585
-0.000255898
0.00313566
-0.000244675
0.00305645
-0.000224176
0.00297722
-0.000196666
0.00289622
-0.000164717
0.00281111
-0.000130535
0.0027199
-9.79232e-05
0.00262405
-6.68749e-05
-6.34661e-05
0.00364701
-2.33792e-05
0.00364049
-2.86541e-05
0.00363065
-3.7863e-05
0.00361586
-5.09795e-05
0.00359444
-6.83711e-05
0.00356496
-9.02065e-05
0.00352633
-0.000115458
0.00347838
-0.000141678
0.00342211
-0.00016499
0.0033595
-0.000181728
0.00329273
-0.000189364
0.00322367
-0.000186831
0.0031531
-0.000174104
0.00308117
-0.000152248
0.00300668
-0.000122178
0.00292759
-8.56246e-05
0.00284155
-4.44936e-05
0.00274531
-1.68922e-06
0.00264063
3.78062e-05
7.69652e-05
0.00357301
-1.87272e-05
0.00356712
-2.27644e-05
0.00355877
-2.95083e-05
0.00354663
-3.88434e-05
0.00352945
-5.11943e-05
0.00350615
-6.68987e-05
0.00347571
-8.50208e-05
0.00343788
-0.000103849
0.00339303
-0.000120136
0.00334231
-0.000131016
0.00328727
-0.000134318
0.00322901
-0.000128576
0.0031683
-0.000113396
0.00310468
-8.86284e-05
0.00303696
-5.44536e-05
0.00296244
-1.11008e-05
0.00287767
4.02716e-05
0.00277824
9.77393e-05
0.0026638
0.00015225
0.000240414
0.00350081
-1.46563e-05
0.0034956
-1.75607e-05
0.0034885
-2.24008e-05
0.00347851
-2.88576e-05
0.00346484
-3.75205e-05
0.00344641
-4.84708e-05
0.00342255
-6.11617e-05
0.00339251
-7.38093e-05
0.00335672
-8.43449e-05
0.00331592
-9.02188e-05
0.00327105
-8.94427e-05
0.0032232
-8.07349e-05
0.00317271
-6.29064e-05
0.00311934
-3.52574e-05
0.00306168
3.2112e-06
0.00299596
5.46204e-05
0.00291756
0.000118665
0.00281851
0.000196798
0.00269575
0.000275008
0.000435711
0.00340056
-1.10088e-05
0.00339604
-1.30381e-05
0.00338995
-1.6312e-05
0.00338177
-2.06758e-05
0.00337071
-2.6458e-05
0.00335595
-3.37137e-05
0.0033368
-4.20152e-05
0.00331297
-4.99725e-05
0.00328434
-5.5717e-05
0.0032517
-5.75746e-05
0.00321604
-5.37834e-05
0.00317834
-4.30406e-05
0.00313948
-2.40452e-05
0.00309955
4.67373e-06
0.00305621
4.65492e-05
0.00300693
0.000103904
0.00294458
0.000181009
0.00285677
0.000284607
0.00273454
0.000397241
0.000669653
0.00320484
-7.65602e-06
0.00320079
-8.98646e-06
0.00319549
-1.10121e-05
0.00318845
-1.36398e-05
0.00317913
-1.71368e-05
0.00316694
-2.15167e-05
0.00315126
-2.63423e-05
0.00313185
-3.05574e-05
0.00310902
-3.28852e-05
0.00308351
-3.20649e-05
0.00305654
-2.68181e-05
0.00302964
-1.6143e-05
0.0030046
1.00068e-06
0.00298095
2.83209e-05
0.00295956
6.79361e-05
0.00293782
0.000125643
0.0029091
0.00020973
0.00285684
0.000336871
0.00276347
0.000490607
0.000932427
0.00278933
-4.60739e-06
0.00278568
-5.33146e-06
0.00278094
-6.27243e-06
0.00277473
-7.42906e-06
0.00276668
-9.09138e-06
0.0027564
-1.12378e-05
0.00274342
-1.33638e-05
0.00272782
-1.49489e-05
0.00271014
-1.52084e-05
0.00269157
-1.34929e-05
0.00267372
-8.97414e-06
0.0026586
-1.02088e-06
0.00264788
1.17196e-05
0.0026448
3.14068e-05
0.00265143
6.13014e-05
0.00266928
0.000107793
0.00269655
0.000182457
0.00272259
0.000310835
0.00272146
0.00049174
0.00115303
0.00199801
-1.92625e-06
0.00199471
-2.02808e-06
0.00199062
-2.18027e-06
0.00198561
-2.41713e-06
0.00197932
-2.80715e-06
0.00197143
-3.34339e-06
0.00196188
-3.81341e-06
0.00195095
-4.01665e-06
0.00193945
-3.70906e-06
0.00192857
-2.62095e-06
0.00192019
-5.91778e-07
0.00191625
2.92444e-06
0.00191971
8.26123e-06
0.00193453
1.65849e-05
0.00196596
2.98672e-05
0.00202174
5.20186e-05
0.00211277
9.14269e-05
0.00225649
0.000167109
0.00243732
0.000310911
0.00108946
0.00075992
0.000757892
0.000755711
0.000753294
0.000750487
0.000747144
0.00074333
0.000739314
0.000735605
0.000732984
0.000732392
0.000735316
0.000743578
0.000760162
0.00079003
0.000842048
0.000933475
0.00110058
0.00141149
1.16595e-05
-1.9868e-09
1.05868e-06
8.88727e-07
8.88446e-07
1.0599e-06
-1.82708e-10
-8.72216e-07
-4.49907e-07
-2.42051e-09
2.51257e-05
1.50091e-06
1.62989e-06
1.62749e-06
1.50145e-06
1.12816e-10
-1.72528e-07
1.72415e-07
1.16392e-05
1.05832e-06
8.87174e-07
8.88131e-07
1.05775e-06
1.31914e-06
3.17562e-11
-8.70208e-07
-4.48965e-07
2.50774e-05
1.50003e-06
1.62613e-06
1.6262e-06
1.49873e-06
3.52948e-05
-3.24133e-09
1.66432e-06
1.43258e-06
1.43345e-06
1.66867e-06
-5.57261e-10
-2.68298e-06
-5.36311e-07
-5.01704e-09
4.70445e-05
1.51816e-06
1.81931e-06
1.81057e-06
1.51743e-06
1.62819e-10
-4.11222e-07
1.7302e-06
3.52032e-05
1.66267e-06
1.42895e-06
1.43222e-06
1.66349e-06
3.20975e-06
-3.38076e-11
-2.67523e-06
-5.34484e-07
4.68975e-05
1.51629e-06
1.811e-06
1.80817e-06
1.51162e-06
3.86613e-05
-7.51275e-09
8.59687e-07
4.25596e-07
4.24491e-07
8.70436e-07
-2.00136e-09
-4.06122e-06
-3.26416e-07
-1.23299e-08
2.7964e-05
1.52636e-07
3.69525e-07
3.45654e-07
1.57927e-07
5.68289e-10
-2.18759e-07
3.42794e-06
3.84282e-05
8.54441e-07
4.1531e-07
4.19799e-07
8.54322e-07
4.35093e-06
-2.2567e-10
-4.03552e-06
-3.15187e-07
2.75988e-05
1.41987e-07
3.29853e-07
3.29645e-07
1.39309e-07
-3.50185e-05
-1.6911e-08
-6.56306e-06
-5.32606e-06
-5.32961e-06
-6.53297e-06
-1.03268e-08
6.47983e-06
2.17951e-05
-2.80107e-08
-9.00413e-05
-1.76735e-05
-2.71791e-05
-2.72381e-05
-1.76407e-05
1.39208e-09
1.11902e-06
3.23052e-06
-3.55178e-05
-6.61243e-06
-5.39851e-06
-5.36493e-06
-6.65011e-06
-2.8682e-05
1.00203e-08
6.72415e-06
2.19478e-05
-9.05347e-05
-1.77227e-05
-2.74529e-05
-2.73622e-05
-1.77941e-05
-3.67117e-11
-1.25331e-05
-6.53834e-08
0.000376
1.94521e-10
-1.8538e-07
-4.8542e-07
-1.82487e-07
-4.78601e-07
4.80565e-10
0.000378417
-4.92448e-08
2.77055e-07
2.75465e-07
-4.95814e-08
3.50833e-10
1.27669e-05
4.60602e-07
1.2602e-05
-7.54558e-11
-1.25364e-05
-6.5509e-08
0.000376016
-1.87373e-07
-4.83279e-07
-1.86349e-07
-4.76499e-07
0.000378437
-4.92191e-08
2.77562e-07
2.75555e-07
-4.93412e-08
1.08023e-11
-1.27246e-05
-1.03071e-07
0.000379496
8.83525e-10
2.49849e-07
-1.29477e-09
2.34401e-09
2.53378e-07
1.2973e-09
0.000383248
1.92161e-07
4.4919e-07
4.47803e-07
1.88673e-07
7.7742e-11
1.26107e-05
-8.7987e-09
1.28304e-05
-1.17703e-10
-1.27269e-05
-1.03393e-07
0.000379521
2.47709e-07
4.25339e-09
5.02792e-09
2.49368e-07
0.000383294
1.9473e-07
4.48614e-07
4.46006e-07
1.93974e-07
1.19827e-10
-1.30512e-05
-1.4737e-07
0.000386056
2.20627e-09
4.03409e-07
1.34127e-07
1.33962e-07
4.01929e-07
3.41249e-09
0.000392153
3.4687e-07
6.4823e-07
6.47667e-07
3.44245e-07
2.89731e-11
1.28727e-05
-4.2371e-08
1.32049e-05
-2.084e-10
-1.30585e-05
-1.46125e-07
0.000386102
4.06496e-07
1.333e-07
1.34228e-07
4.09221e-07
0.000392235
3.47646e-07
6.50075e-07
6.4626e-07
3.46862e-07
3.94115e-10
-1.36522e-05
-2.53134e-07
0.000398346
5.17942e-09
7.23736e-07
3.87809e-07
3.89627e-07
7.24026e-07
7.64875e-09
0.000409317
7.09914e-07
1.11942e-06
1.12167e-06
7.04183e-07
-8.43644e-11
1.33116e-05
-1.06638e-07
1.3922e-05
-4.80882e-10
-1.36654e-05
-2.56084e-07
0.000398472
7.25266e-07
3.89894e-07
3.90499e-07
7.30287e-07
0.000409515
7.14728e-07
1.12671e-06
1.1219e-06
7.17123e-07
2.09382e-09
-1.51273e-05
-9.25488e-07
0.000423531
1.18416e-08
1.64594e-06
1.06436e-06
1.07397e-06
1.64299e-06
1.84693e-08
0.000445652
2.14095e-06
3.37131e-06
3.37646e-06
2.12555e-06
-4.91411e-10
1.42018e-05
-2.79342e-07
1.61059e-05
-1.85709e-09
-1.51653e-05
-9.38795e-07
0.000423835
1.65175e-06
1.07534e-06
1.07538e-06
1.66751e-06
0.000446136
2.14445e-06
3.41e-06
3.38825e-06
2.14783e-06
4.67851e-08
-3.43442e-05
-2.45253e-05
0.000474809
2.61121e-08
9.57747e-06
5.90349e-06
5.93502e-06
9.54567e-06
2.24325e-08
0.000489585
1.74005e-05
2.26205e-05
2.26918e-05
1.73374e-05
-2.9084e-09
1.81724e-05
-2.06358e-06
5.90264e-05
-4.09469e-09
-3.44859e-05
-2.45364e-05
0.000475625
9.58056e-06
5.95131e-06
5.93144e-06
9.62859e-06
0.00049041
1.73789e-05
2.28563e-05
2.29038e-05
1.7398e-05
2.76949e-07
-7.16115e-07
-1.37553e-10
1.49849e-06
-5.06926e-10
-7.34366e-12
7.15945e-07
-9.72365e-11
-2.7726e-07
4.5021e-07
1.72967e-07
-1.72751e-07
-2.82409e-10
4.50125e-07
-3.09927e-10
-4.31018e-10
1.49844e-06
-4.77871e-06
4.58107e-07
1.07348e-10
5.98556e-06
-7.3585e-10
-4.11368e-07
1.73378e-06
-1.32213e-06
-3.76313e-10
4.68473e-11
4.7785e-06
-3.75836e-06
-2.04534e-10
-4.57879e-07
2.19288e-06
-3.75594e-06
-6.32132e-10
2.19213e-06
-4.38888e-10
5.9894e-06
-8.49767e-06
3.0944e-07
8.51743e-10
9.04839e-06
-1.32298e-09
-2.17665e-07
3.43636e-06
-3.21818e-06
-6.58671e-10
1.29997e-10
8.50483e-06
-8.30075e-06
-6.45601e-10
-3.10365e-07
3.75238e-06
-8.28962e-06
-1.11052e-09
3.74591e-06
-7.64348e-10
9.06575e-06
-4.68798e-06
-2.06372e-06
7.7789e-09
1.83429e-07
-2.56822e-09
1.10385e-06
3.27277e-06
-4.37672e-06
-8.93079e-10
-1.44247e-09
4.73061e-06
-8.96341e-06
-3.03078e-09
2.04784e-06
1.25401e-06
-8.91337e-06
-1.80741e-09
1.20728e-06
-1.25e-09
2.53263e-07
-2.08747e-07
-4.31988e-12
-4.22334e-05
4.22567e-05
4.68986e-11
-4.83508e-11
2.09959e-07
1.25537e-05
4.22286e-05
5.87905e-10
1.2765e-05
4.62319e-07
5.37821e-12
1.25561e-05
2.77957e-11
4.22561e-05
1.39224e-12
4.83355e-08
-4.24317e-05
-1.12354e-10
4.26331e-05
2.25429e-10
1.26096e-05
-8.79955e-09
-1.26008e-05
1.09102e-10
4.69583e-11
-4.77199e-08
1.26566e-05
2.9455e-10
4.24266e-05
-4.24388e-05
1.26579e-05
1.2305e-10
-4.2438e-05
1.49542e-10
4.26321e-05
7.8607e-08
-4.31951e-05
-1.265e-10
4.35196e-05
4.48623e-10
1.28691e-05
-4.00126e-08
-1.28291e-05
2.28614e-10
8.49123e-11
-7.73838e-08
1.29446e-05
3.50654e-10
4.31926e-05
-4.30986e-05
1.29475e-05
3.02163e-10
-4.31012e-05
3.74217e-10
4.3517e-05
1.53e-07
-4.45436e-05
-3.98637e-10
4.51137e-05
1.08431e-09
1.33055e-05
-1.04837e-07
-1.32009e-05
5.74398e-10
2.307e-10
-1.50019e-07
1.34534e-05
5.27265e-10
4.45366e-05
-4.42548e-05
1.34581e-05
6.68947e-10
-4.42592e-05
9.35937e-10
4.51102e-05
3.75493e-07
-4.72874e-05
-1.5943e-09
4.85571e-05
2.30864e-09
1.41859e-05
-2.7527e-07
-1.39111e-05
1.15228e-09
9.12604e-10
-3.7216e-07
1.45501e-05
1.13098e-09
4.72687e-05
-4.648e-05
1.4561e-05
1.34639e-09
-4.64896e-05
1.97815e-09
4.85379e-05
4.49935e-06
-5.64273e-05
-9.15715e-09
6.15103e-05
4.25806e-09
1.81472e-05
-2.07162e-06
-1.60741e-05
1.57313e-09
5.2449e-09
-4.46991e-06
2.25657e-05
4.781e-09
5.637e-05
-5.25246e-05
2.26496e-05
2.19416e-09
-5.25625e-05
3.42801e-09
6.14366e-05
-0.000164258
-2.1486e-08
0.000505609
-6.058e-09
-8.41622e-09
0.000291989
-0.000130848
2.85322e-05
1.54204e-05
1.53114e-05
-5.89853e-05
-6.56299e-05
-6.54647e-05
-0.000164158
0.000505579
4.21615e-07
2.57812e-06
1.80223e-10
-5.14232e-10
-8.71876e-07
-4.501e-07
-3.34811e-10
-1.77754e-10
-4.21831e-07
-1.21988e-10
-2.57825e-06
-3.11936e-10
-5.58402e-10
2.76998e-07
-7.15081e-07
-3.97748e-10
1.49629e-06
1.72663e-07
-1.72834e-07
2.16248e-10
7.14428e-07
8.90402e-11
-2.76715e-07
4.4904e-07
4.49436e-07
1.49506e-06
4.21549e-07
2.57437e-06
-1.0355e-10
-8.7069e-07
-4.49886e-07
1.32027e-06
1.52165e-11
-4.21183e-07
1.93339e-10
-2.5725e-06
3.74947e-06
3.75032e-06
4.88086e-07
7.01649e-06
2.10042e-12
-8.64884e-10
-2.68053e-06
-5.37613e-07
-5.92898e-10
-1.93449e-10
-4.89913e-07
-8.38945e-10
-7.01691e-06
-5.05994e-10
-1.0186e-09
-4.7712e-06
4.58071e-07
-3.5795e-10
5.97543e-06
-4.11139e-07
1.7312e-06
4.24546e-10
4.76677e-06
1.06843e-10
-4.56902e-07
2.187e-06
2.18894e-06
5.97301e-06
4.8785e-07
7.00361e-06
-6.05367e-10
-2.67649e-06
-5.37431e-07
3.2133e-06
2.05436e-10
-4.88437e-07
-4.15702e-11
-6.99558e-06
8.27214e-06
8.27328e-06
3.03792e-07
8.89794e-06
7.24824e-10
-1.43392e-09
-4.04971e-06
-3.28112e-07
-9.02404e-10
-8.09275e-10
-3.08026e-07
-3.9197e-09
-8.91638e-06
-8.10262e-10
-1.80427e-09
-8.47646e-06
3.08298e-07
-6.8368e-10
9.02197e-06
-2.16788e-07
3.42999e-06
1.29068e-09
8.4674e-06
3.05043e-10
-3.06242e-07
3.73387e-06
3.73783e-06
9.0148e-06
3.01094e-07
8.86305e-06
-1.62905e-09
-4.03864e-06
-3.2361e-07
4.36112e-06
5.19075e-10
-3.02169e-07
-8.77618e-10
-8.85031e-06
8.86586e-06
8.8664e-06
-7.77224e-06
-9.71889e-06
5.23735e-09
-4.20622e-09
6.56477e-06
2.1812e-05
-1.1389e-08
-1.91399e-09
7.73575e-06
-1.64041e-08
9.64643e-06
-2.11766e-09
-8.20573e-09
-4.61942e-06
-2.08749e-06
1.24626e-09
9.0666e-08
1.11691e-06
3.24471e-06
2.85727e-09
4.58351e-06
4.12652e-10
2.1067e-06
1.1234e-06
1.15638e-06
4.13571e-08
-7.80356e-06
-9.82732e-06
-5.3134e-09
6.64526e-06
2.18855e-05
4.03677e-09
7.84351e-06
7.49613e-10
9.91453e-06
-2.13147e-08
4.22287e-05
-5.6515e-11
7.17381e-11
-1.25348e-05
-6.6085e-08
6.80292e-11
-1.17586e-12
2.06388e-08
-4.35304e-11
-4.22271e-05
4.70714e-11
1.07429e-10
-2.08807e-07
2.99153e-11
-4.2236e-05
4.22574e-05
1.27667e-05
4.62318e-07
-6.93312e-11
2.10004e-07
1.25569e-05
4.22329e-05
5.8107e-10
1.25578e-05
4.22566e-05
-2.1328e-08
4.22296e-05
-1.221e-11
-1.25365e-05
-6.60942e-08
1.26026e-05
-3.10441e-11
2.05648e-08
-1.0794e-10
-4.22278e-05
4.244e-05
4.24391e-05
6.73215e-08
4.27579e-05
-2.08023e-10
2.33335e-10
-1.27251e-05
-1.0418e-07
2.05226e-10
1.12279e-10
-6.81409e-08
3.34704e-11
-4.27525e-05
1.52946e-10
3.3437e-10
4.82413e-08
-4.24366e-05
4.48044e-11
4.26362e-05
1.26106e-05
-7.83737e-09
-3.4642e-11
-4.76978e-08
1.26584e-05
1.9831e-10
4.24352e-05
1.2659e-05
4.2637e-05
6.74076e-08
4.27639e-05
-5.01492e-11
-1.27265e-05
-1.04159e-07
1.28308e-05
1.31073e-11
-6.84638e-08
-1.57681e-10
-4.27624e-05
4.31078e-05
4.31059e-05
1.06107e-07
4.37601e-05
-3.04742e-10
6.02376e-10
-1.30534e-05
-1.47914e-07
4.99777e-10
1.78033e-10
-1.06778e-07
2.1672e-10
-4.37542e-05
3.78556e-10
8.11048e-10
7.86916e-08
-4.31995e-05
1.40686e-10
4.35276e-05
1.28721e-05
-4.11007e-08
-1.05725e-10
-7.81183e-08
1.29509e-05
1.11517e-10
4.31986e-05
1.2951e-05
4.35299e-05
1.06178e-07
4.37696e-05
7.41662e-11
-1.30575e-05
-1.46768e-07
1.32046e-05
-6.53231e-11
-1.07531e-07
-2.68571e-10
-4.37693e-05
4.42735e-05
4.42697e-05
1.9806e-07
4.56248e-05
-6.55285e-10
1.3546e-09
-1.36557e-05
-2.55977e-07
9.9559e-10
4.25897e-10
-1.99298e-07
7.18227e-10
-4.56145e-05
8.42373e-10
1.67593e-09
1.54137e-07
-4.45561e-05
3.47525e-10
4.5128e-05
1.33099e-05
-1.04864e-07
-2.60498e-10
-1.5381e-07
1.34657e-05
-8.75171e-11
4.45568e-05
1.34645e-05
4.51337e-05
1.97321e-07
4.56464e-05
3.78957e-10
-1.36624e-05
-2.56063e-07
1.39189e-05
-2.62907e-10
-1.99473e-07
-6.18101e-10
-4.56517e-05
4.65229e-05
4.65133e-05
5.8264e-07
5.01149e-05
-2.17641e-09
2.68841e-09
-1.51435e-05
-9.30005e-07
1.42538e-09
1.35635e-09
-5.7852e-07
3.96018e-09
-5.00828e-05
1.52252e-09
2.83513e-09
3.75363e-07
-4.73139e-05
1.0514e-09
4.85916e-05
1.41956e-05
-2.75976e-07
-8.55817e-10
-3.77435e-07
1.45801e-05
-7.23949e-10
4.73196e-05
1.45714e-05
4.86108e-05
5.82159e-07
5.01547e-05
1.8385e-09
-1.51538e-05
-9.33432e-07
1.60868e-05
-1.27501e-09
-5.83874e-07
-1.96675e-09
-5.01766e-05
5.26497e-05
5.26104e-05
1.18287e-05
6.70852e-05
-8.68316e-09
5.56999e-09
-3.44821e-05
-2.44602e-05
2.88899e-09
9.56277e-09
-1.17881e-05
1.15353e-08
-6.69772e-05
5.75298e-09
-1.04408e-09
4.49142e-06
-5.64781e-05
5.14902e-09
6.15663e-05
1.81486e-05
-2.06313e-06
-5.22666e-09
-4.50168e-06
2.26793e-05
-4.06662e-09
5.65415e-05
2.2637e-05
6.16736e-05
1.17715e-05
6.71641e-05
1.52245e-08
-3.43991e-05
-2.45874e-05
-1.51265e-08
-1.17914e-05
-1.47444e-08
-6.72954e-05
)
;

boundaryField
{
    fixedWalls
    {
        type            calculated;
        value           uniform 0;
    }
    frontAndBack
    {
        type            empty;
        value           nonuniform 0();
    }
    right
    {
        type            calculated;
        value           nonuniform List<scalar> 
25
(
-1.32246e-05
-0.00287902
-0.00369234
-0.00399938
-0.004029
-0.0039478
-0.00384029
-0.00373888
-0.00365188
-0.00357766
-0.00350488
-0.00340421
-0.00320819
-0.00279238
-0.0020007
-0.000761846
-1.32278e-05
-0.000374825
-0.000374812
-1.32269e-05
-4.22491e-05
-4.2254e-05
-4.22562e-05
-4.22496e-05
-1.32287e-05
)
;
    }
    left
    {
        type            calculated;
        value           nonuniform List<scalar> 
20
(
0.00249936
0.00249936
0.00249937
0.0024994
0.00249945
0.00249945
0.00249955
0.0024996
0.0024997
0.0024998
0.0024999
0.00250005
0.0025002
0.00250035
0.00250045
0.0025006
0.0025007
0.00250085
0.0025009
0.00250095
)
;
    }
    model
    {
        type            calculated;
        value           uniform 0;
    }
}


// ************************************************************************* //
