/*--------------------------------*- C++ -*----------------------------------*\
  =========                 |
  \\      /  F ield         | OpenFOAM: The Open Source CFD Toolbox
   \\    /   O peration     | Website:  https://openfoam.org
    \\  /    A nd           | Version:  7
     \\/     M anipulation  |
\*---------------------------------------------------------------------------*/
FoamFile
{
    version     2.0;
    format      ascii;
    class       volVectorField;
    location    "0.5";
    object      U;
}
// * * * * * * * * * * * * * * * * * * * * * * * * * * * * * * * * * * * * * //

dimensions      [0 1 -1 0 0 0 0];

internalField   nonuniform List<vector> 
733
(
(-0.000180935 0.000317241 0.00570537)
(-0.0249458 0.00782044 1.61579e-08)
(-0.0232096 -0.00132141 0)
(-0.00410119 -0.00822222 0)
(0.0258844 -0.0112695 2.94811e-24)
(0.057869 -0.0111534 0)
(0.0869449 -0.00951944 0)
(0.111379 -0.00784561 0)
(0.131909 -0.00707947 0)
(0.150859 -0.00791672 0)
(0.171834 -0.011391 0)
(0.201225 -0.0197906 0)
(0.261566 -0.0400968 0)
(0.258307 -0.141489 6.80569e-25)
(-0.000493718 0.00550392 0.00644011)
(-0.0195596 0.0143976 -6.12141e-10)
(0.00604946 -0.0206076 -2.44984e-22)
(0.0526831 -0.0453739 4.16166e-22)
(0.110676 -0.0556052 -1.60399e-22)
(0.169905 -0.0543879 -2.2492e-24)
(0.224015 -0.0473972 0)
(0.270358 -0.0396618 0)
(0.309509 -0.0344879 5.8714e-25)
(0.34396 -0.0339685 0)
(0.377503 -0.0402557 0)
(0.413368 -0.0573807 -2.1416e-23)
(0.457134 -0.0865073 2.14159e-23)
(0.484164 -0.252504 -2.71029e-25)
(-0.000290612 0.0119923 0.00817821)
(0.0204734 -0.00758142 4.70105e-09)
(0.0766131 -0.0696432 -2.29805e-23)
(0.139626 -0.110003 -1.36766e-23)
(0.203712 -0.124547 1.35854e-22)
(0.265261 -0.119631 -4.3751e-23)
(0.320931 -0.10477 -9.51881e-23)
(0.368926 -0.0882903 2.76138e-23)
(0.409479 -0.0757475 -5.87285e-25)
(0.443841 -0.0703847 -3.59993e-23)
(0.473933 -0.0744814 3.59993e-23)
(0.499884 -0.091601 0)
(0.51948 -0.118285 0)
(0.531332 -0.22693 -4.22284e-25)
(0.00139832 0.0143367 0.0124755)
(0.131694 -0.0793458 -9.95697e-07)
(0.207453 -0.140266 2.22202e-22)
(0.269509 -0.177266 7.0712e-23)
(0.319964 -0.186796 2.43925e-22)
(0.363814 -0.175434 -1.94878e-22)
(0.402794 -0.153328 -1.69635e-22)
(0.436978 -0.129638 7.29922e-23)
(0.466459 -0.110606 4.79162e-23)
(0.491205 -0.099695 -4.79145e-23)
(0.511451 -0.0985842 3.9381e-23)
(0.525716 -0.10889 -3.93799e-23)
(0.530482 -0.125074 -1.24262e-23)
(0.532221 -0.194712 1.24836e-23)
(0.0454905 1.65198e-05 0.000229934)
(0.0451092 -4.78207e-06 0.00129028)
(0.0460031 -1.79228e-05 0.00255826)
(0.0474422 -7.85291e-05 0.00392828)
(0.0502308 -0.000249287 0.00544985)
(0.0596799 -0.00284283 0.00735332)
(0.218752 -0.0941879 0.013661)
(0.376799 -0.163003 -2.54311e-06)
(0.416952 -0.198917 -2.0011e-22)
(0.443586 -0.219531 -7.08831e-23)
(0.459347 -0.219634 2.32552e-23)
(0.471123 -0.203071 0)
(0.48264 -0.177865 4.70729e-23)
(0.494712 -0.151733 -2.36355e-24)
(0.506914 -0.130111 3.11832e-24)
(0.517971 -0.115982 -4.63385e-23)
(0.526812 -0.110434 3.06792e-23)
(0.53117 -0.113874 -3.06778e-23)
(0.527857 -0.120573 7.99282e-24)
(0.52526 -0.167216 -8.02968e-24)
(0.577458 -0.00395401 -8.31396e-10)
(0.58016 -0.00537076 4.43922e-09)
(0.585895 -0.00897641 4.98071e-09)
(0.595706 -0.0163147 -2.8283e-08)
(0.610527 -0.0308996 1.84937e-08)
(0.631999 -0.0641909 4.99544e-07)
(0.648649 -0.124893 -1.31181e-06)
(0.636584 -0.169751 -7.1223e-07)
(0.620169 -0.19999 9.86734e-23)
(0.600323 -0.214742 0)
(0.57949 -0.212691 -1.60972e-22)
(0.561604 -0.197578 1.65014e-22)
(0.548914 -0.175696 -7.28325e-24)
(0.541509 -0.152888 -2.80292e-24)
(0.538239 -0.133327 1.34319e-24)
(0.537007 -0.119397 0)
(0.536053 -0.111935 -2.10692e-23)
(0.532844 -0.111064 2.37367e-23)
(0.524744 -0.111812 -6.16924e-24)
(0.52005 -0.145337 4.62548e-24)
(0.739075 -0.00653995 2.46568e-23)
(0.740544 -0.00898584 -4.05583e-23)
(0.743609 -0.0147074 3.14913e-23)
(0.748138 -0.0250913 0)
(0.75348 -0.0423873 -7.99037e-22)
(0.757713 -0.0701578 1.59454e-22)
(0.754367 -0.10977 8.54886e-22)
(0.735895 -0.146011 -1.50242e-22)
(0.706904 -0.171764 -2.92772e-22)
(0.673436 -0.184306 -4.75957e-23)
(0.640554 -0.183826 1.2132e-22)
(0.611821 -0.173526 -4.17053e-24)
(0.588951 -0.157842 6.52e-24)
(0.571989 -0.140812 2.80339e-24)
(0.559949 -0.125448 0)
(0.550914 -0.113627 -1.95605e-23)
(0.543317 -0.106121 7.7573e-24)
(0.534921 -0.103191 1.15886e-24)
(0.523636 -0.100824 1.05683e-23)
(0.51766 -0.126572 5.68106e-25)
(0.799189 -0.0078952 0)
(0.799661 -0.0105939 -1.08132e-23)
(0.800343 -0.0167671 -6.13295e-23)
(0.800584 -0.0272494 0)
(0.799288 -0.0431105 0)
(0.794598 -0.0652996 4.7794e-22)
(0.782964 -0.0932446 2.52699e-22)
(0.761269 -0.120144 6.63241e-23)
(0.731362 -0.140111 1.32295e-22)
(0.697762 -0.150591 -4.2008e-23)
(0.664757 -0.151826 -6.74016e-23)
(0.635188 -0.145897 6.47399e-23)
(0.610359 -0.135604 -2.90998e-23)
(0.590329 -0.123632 1.12572e-23)
(0.574426 -0.112138 -9.86869e-24)
(0.5612 -0.102594 -4.31354e-24)
(0.549567 -0.0957242 0)
(0.537779 -0.091967 5.26126e-24)
(0.52414 -0.0881667 -6.69774e-24)
(0.517227 -0.108621 -1.21865e-25)
(0.804261 -0.00819471 0)
(0.804105 -0.0106948 -1.55351e-23)
(0.803345 -0.0162579 1.12041e-22)
(0.801326 -0.0252796 -1.3719e-22)
(0.79705 -0.0381766 0)
(0.789172 -0.0550605 -6.67626e-22)
(0.775833 -0.0751246 -2.52487e-22)
(0.75566 -0.0948408 4.69105e-23)
(0.729663 -0.110343 0)
(0.700713 -0.119528 -9.80144e-24)
(0.67185 -0.122219 -2.48869e-23)
(0.645186 -0.119529 -1.40855e-23)
(0.621734 -0.113172 1.16003e-24)
(0.6016 -0.104935 -1.12568e-23)
(0.584409 -0.0963766 1.95782e-23)
(0.569136 -0.0886687 4.31371e-24)
(0.55514 -0.08249 -3.18888e-24)
(0.541125 -0.0784186 0)
(0.525587 -0.0740355 0)
(0.517913 -0.0901543 -3.37549e-25)
(0.787637 -0.00777384 0)
(0.787131 -0.00989978 2.86634e-23)
(0.78569 -0.0144688 -5.07065e-23)
(0.782863 -0.021627 1.7141e-22)
(0.77788 -0.0315291 -1.71398e-22)
(0.76979 -0.0441163 1.89439e-22)
(0.757583 -0.058722 0)
(0.740645 -0.073343 1.10275e-22)
(0.719561 -0.0854989 8.60016e-23)
(0.696046 -0.0934951 1.77733e-23)
(0.672087 -0.0968605 1.6899e-23)
(0.649178 -0.0960886 0)
(0.628113 -0.0921995 -1.90534e-23)
(0.609042 -0.0863771 1.65156e-23)
(0.591803 -0.0797463 -2.01898e-23)
(0.575674 -0.0732389 0)
(0.560321 -0.067489 3.18888e-24)
(0.544794 -0.0631637 -6.70307e-25)
(0.527599 -0.058511 -1.13224e-24)
(0.519252 -0.0704694 7.53597e-25)
(0.766026 -0.00695894 0)
(0.765356 -0.00868104 -1.31286e-23)
(0.763688 -0.0122475 0)
(0.760785 -0.0176932 0)
(0.756092 -0.0251056 7.94292e-23)
(0.748929 -0.0344419 7.25952e-23)
(0.738687 -0.0452146 -1.42752e-22)
(0.725055 -0.0561733 -7.46464e-23)
(0.708364 -0.0656655 1.45027e-22)
(0.689607 -0.0723643 6.71269e-23)
(0.67003 -0.0756921 -7.58779e-24)
(0.650658 -0.0757737 7.58764e-24)
(0.632099 -0.0731804 4.95377e-23)
(0.614507 -0.0686809 3.08887e-24)
(0.597838 -0.0630787 -4.62738e-24)
(0.58154 -0.0571115 9.71835e-25)
(0.565452 -0.0513644 -3.06514e-24)
(0.548856 -0.0465556 -6.58802e-25)
(0.530097 -0.0415918 4.95558e-25)
(0.521101 -0.0491144 -4.55739e-25)
(0.745767 -0.00598924 1.79362e-24)
(0.745047 -0.00734249 0)
(0.743389 -0.0100454 -2.51594e-23)
(0.740724 -0.0140896 9.63806e-24)
(0.736661 -0.0195553 5.78488e-23)
(0.730698 -0.0264454 0)
(0.72242 -0.0344244 7.00953e-23)
(0.711621 -0.0426476 0)
(0.698467 -0.0499533 -7.03246e-23)
(0.683522 -0.0553044 -1.31468e-22)
(0.667555 -0.0581194 0)
(0.65125 -0.0583159 0)
(0.635055 -0.0561729 -5.49384e-23)
(0.619089 -0.0521652 0)
(0.603343 -0.0468482 -9.35661e-24)
(0.587332 -0.0407923 7.73548e-24)
(0.570944 -0.034528 6.71968e-24)
(0.553581 -0.0287883 4.59058e-24)
(0.533238 -0.0231943 -8.71355e-25)
(0.523559 -0.0256364 4.36858e-25)
(0.728477 -0.00500332 -2.57519e-24)
(0.727775 -0.0060428 -9.47363e-24)
(0.726245 -0.00804779 4.30832e-23)
(0.723929 -0.0109959 -1.8394e-23)
(0.720555 -0.0149721 4.49528e-23)
(0.715738 -0.0200155 0)
(0.709161 -0.0258965 0)
(0.700652 -0.0320071 -6.04919e-23)
(0.69027 -0.0374872 -3.17404e-23)
(0.678328 -0.0415144 1.43594e-22)
(0.665295 -0.0435471 5.58915e-25)
(0.651621 -0.0433915 1.54233e-23)
(0.637624 -0.0411313 3.18013e-23)
(0.623366 -0.0370188 -4.38528e-24)
(0.608823 -0.0313994 -3.94459e-25)
(0.593498 -0.0246744 -1.10453e-23)
(0.577211 -0.017305 0)
(0.559369 -0.0100118 -2.62467e-24)
(0.537361 -0.00315962 8.71323e-25)
(0.526928 0.000620263 -4.36842e-25)
(0.713725 -0.00407171 1.59672e-24)
(0.713076 -0.00485457 1.26475e-23)
(0.711721 -0.00631393 -4.00779e-23)
(0.709768 -0.00842561 8.68616e-24)
(0.707028 -0.0112764 -3.52422e-23)
(0.703198 -0.0149202 0)
(0.698018 -0.0191925 -2.84441e-23)
(0.691327 -0.0236316 1.19084e-22)
(0.683119 -0.027575 -3.01584e-23)
(0.673562 -0.0303603 -3.17388e-23)
(0.662947 -0.0315007 -6.46992e-23)
(0.651574 -0.0307437 0)
(0.639668 -0.0280338 4.18653e-23)
(0.627241 -0.0234374 -7.94042e-24)
(0.614234 -0.0170897 1.47937e-23)
(0.600073 -0.00918361 -9.04959e-25)
(0.584395 -5.46591e-05 7.12343e-24)
(0.566549 0.00971259 0)
(0.542935 0.0188408 0)
(0.531706 0.0308356 0)
(0.699281 -0.00322502 6.68595e-25)
(0.698695 -0.0038034 -7.59437e-24)
(0.697518 -0.00484452 2.41406e-23)
(0.695891 -0.00632716 -9.01154e-24)
(0.693684 -0.00833261 9.01332e-24)
(0.690653 -0.0109117 0)
(0.686578 -0.0139338 -2.58786e-23)
(0.681308 -0.017034 -2.85226e-23)
(0.674805 -0.0196896 0)
(0.667163 -0.0213649 -1.63575e-23)
(0.658582 -0.0216319 -1.11717e-24)
(0.649284 -0.0202105 -1.71522e-23)
(0.639454 -0.0169387 -1.49854e-23)
(0.629087 -0.0117035 1.95556e-23)
(0.618116 -0.00438312 -2.23157e-24)
(0.60587 0.00503766 2.23163e-24)
(0.591757 0.016553 -7.12277e-24)
(0.57487 0.0299713 8.74644e-24)
(0.55018 0.0429381 0)
(0.538406 0.0666911 0)
(0.679253 -0.00246882 -6.67996e-25)
(0.678725 -0.00288598 1.36126e-24)
(0.6777 -0.00360676 -1.484e-23)
(0.676334 -0.00461587 -7.47031e-24)
(0.674533 -0.00598453 -8.33186e-24)
(0.672101 -0.00774773 -1.03447e-23)
(0.668851 -0.00979009 2.58764e-23)
(0.664652 -0.011817 1.36766e-23)
(0.659466 -0.0134173 -1.6446e-23)
(0.653369 -0.014165 3.28718e-23)
(0.646538 -0.0136967 1.63168e-23)
(0.639189 -0.0117272 -1.32776e-24)
(0.631535 -0.0080147 -1.8932e-23)
(0.623651 -0.00223508 -2.41154e-24)
(0.615455 0.00588858 2.91886e-23)
(0.606295 0.0168183 0)
(0.595466 0.031066 1.15455e-23)
(0.581636 0.0493278 -2.01683e-23)
(0.558019 0.0683404 0)
(0.546912 0.11005 0)
(0.640143 -0.00179248 0)
(0.639652 -0.00208013 0)
(0.638737 -0.0025478 5.5053e-24)
(0.637554 -0.0031904 1.15998e-23)
(0.63603 -0.00406769 1.54973e-23)
(0.634003 -0.00519321 -1.00775e-23)
(0.631327 -0.00646112 2.60781e-23)
(0.627903 -0.00763861 -1.34404e-23)
(0.623727 -0.00841767 3.1288e-23)
(0.618907 -0.00847985 0)
(0.613656 -0.0075355 1.93627e-23)
(0.608241 -0.00531695 -1.46992e-24)
(0.603018 -0.00151316 3.4713e-23)
(0.598117 0.00421806 -5.93831e-23)
(0.593674 0.0124728 -9.9541e-24)
(0.589388 0.0242307 1.52181e-23)
(0.58462 0.0407212 -1.28922e-23)
(0.577882 0.0643323 1.2769e-23)
(0.561044 0.0915827 7.66486e-24)
(0.554405 0.161152 1.708e-24)
(0.557166 -0.0011774 -1.4592e-25)
(0.556685 -0.00135143 0)
(0.555844 -0.00160539 -4.94738e-25)
(0.554791 -0.00194938 3.1049e-24)
(0.55346 -0.0024302 9.12196e-24)
(0.551724 -0.00304119 0)
(0.549477 -0.00369318 -5.88172e-24)
(0.546678 -0.00422358 -2.12452e-23)
(0.543382 -0.00443198 0)
(0.539758 -0.00411534 -1.81781e-23)
(0.536087 -0.00307611 -2.97864e-23)
(0.532741 -0.00110271 2.01083e-23)
(0.530098 0.00207805 -1.80141e-23)
(0.528618 0.00683142 1.79298e-23)
(0.528894 0.0139696 1.5625e-24)
(0.531172 0.0247299 -3.27201e-23)
(0.535696 0.0411783 -2.45113e-24)
(0.541835 0.0679116 -9.16883e-24)
(0.542847 0.102874 -9.36449e-24)
(0.549382 0.214557 0)
(0.399146 -0.000615103 1.44806e-25)
(0.398664 -0.000676243 1.04983e-24)
(0.397918 -0.000745975 -3.65965e-24)
(0.397041 -0.000849449 0)
(0.395974 -0.00101339 4.98298e-24)
(0.394617 -0.00122147 5.00653e-25)
(0.392924 -0.00141899 -6.82971e-24)
(0.390904 -0.00152503 2.86655e-23)
(0.388664 -0.00145 8.29556e-24)
(0.386409 -0.00110536 1.81762e-23)
(0.384443 -0.000396552 -1.0312e-23)
(0.383147 0.000783361 2.89696e-25)
(0.38301 0.00260444 -6.01266e-24)
(0.384687 0.00542346 1.37685e-23)
(0.389117 0.00981206 -1.97568e-23)
(0.39748 0.0168943 1.93134e-23)
(0.411703 0.0288992 2.50136e-24)
(0.433914 0.0507172 1.16197e-23)
(0.466181 0.0841977 0)
(0.493077 0.253959 0)
(0.151907 -0.000171394 0)
(0.151543 -0.000170506 0)
(0.151108 -0.000161723 0)
(0.150666 -0.000160951 0)
(0.150168 -0.000173675 0)
(0.149575 -0.000190728 -5.38452e-24)
(0.148873 -0.000196464 0)
(0.148093 -0.000172796 -5.27997e-24)
(0.147317 -0.000102315 -1.00797e-23)
(0.146667 3.28608e-05 4.8418e-24)
(0.146318 0.000254847 7.96813e-24)
(0.146511 0.000589747 2.93142e-24)
(0.14756 0.00111102 0)
(0.149932 0.00194129 0)
(0.154394 0.00332151 0)
(0.162224 0.00577357 -2.48665e-24)
(0.175801 0.0104487 5.49063e-24)
(0.200826 0.0199711 -3.00395e-24)
(0.258493 0.0416857 0)
(0.258058 0.144992 0)
(-0.00676957 0.0049888 0.00658702)
(-0.00057493 0.00387644 0.00625277)
(-0.0105511 0.0144311 0.00710833)
(-0.000180594 0.000316441 -0.00570324)
(-0.00675866 0.00498115 -0.00658702)
(-0.000573705 0.00386725 -0.00625017)
(-0.0105323 0.0144051 -0.00710827)
(-0.0101076 0.0246947 0.00755544)
(-0.000759251 0.0106392 0.00747042)
(-0.0107848 0.0343693 0.0081123)
(-0.00049235 0.00548994 -0.00643692)
(-0.0100808 0.0246413 -0.00755534)
(-0.000756795 0.010607 -0.00746502)
(-0.0107445 0.0342787 -0.00811216)
(-0.00348125 0.0355893 0.00950131)
(-0.000716333 0.0156382 0.010733)
(0.000716545 0.0329216 0.0103253)
(-0.000287485 0.0119497 -0.00817155)
(-0.00341066 0.0354415 -0.0095013)
(-0.000698131 0.0155316 -0.0107207)
(0.000862531 0.0326975 -0.0103253)
(0.0340898 0.0017139 0.0128081)
(0.0507115 -0.0290244 0.0191932)
(0.0931674 -0.0481697 0.0129315)
(0.00144465 0.0141639 -0.0124583)
(0.0344186 0.00137675 -0.0128076)
(0.0518584 -0.0297697 -0.0190411)
(0.0937771 -0.0484513 -0.0129363)
(0.0449168 -0.000132708 0.00096067)
(0.300461 -0.000437776 0.000354653)
(0.301191 -0.00184994 0.000934508)
(0.0454976 1.64362e-05 -0.000230016)
(0.0449253 -0.000132919 -0.000961328)
(0.300475 -0.000438635 -0.000354648)
(0.301205 -0.00185232 -0.000934509)
(0.0457286 -0.000148437 0.00220398)
(0.302649 -0.000736353 0.00164479)
(0.304562 -0.00233367 0.00231789)
(0.0451163 -5.34365e-06 -0.00129133)
(0.0457371 -0.000148816 -0.00220585)
(0.302667 -0.000741985 -0.00164477)
(0.304589 -0.00234252 -0.00231789)
(0.046961 -0.000194709 0.00354928)
(0.307355 -0.00152326 0.00310034)
(0.310544 -0.00356318 0.00384624)
(0.0460153 -1.80026e-05 -0.0025604)
(0.0469834 -0.000196015 -0.00355398)
(0.307393 -0.00153526 -0.00310035)
(0.3106 -0.00358396 -0.00384618)
(0.0492464 -0.000310236 0.00503348)
(0.315601 -0.00345508 0.00471354)
(0.321568 -0.00644841 0.00559011)
(0.047467 -7.98306e-05 -0.00393364)
(0.0493 -0.000314606 -0.00504334)
(0.315683 -0.00348703 -0.0047135)
(0.321694 -0.00650238 -0.00559014)
(0.0551273 -0.00124885 0.00680738)
(0.331333 -0.00848428 0.00663639)
(0.343391 -0.0157412 0.0078192)
(0.0502993 -0.000256015 -0.00546216)
(0.0552973 -0.00128803 -0.00682974)
(0.331526 -0.00857839 -0.0066361)
(0.343664 -0.0159271 -0.00781852)
(0.113309 -0.0400392 0.0175474)
(0.364746 -0.0310326 0.00912034)
(0.389824 -0.063388 0.0106427)
(0.0599336 -0.00292469 -0.00738459)
(0.113941 -0.0409009 -0.0176015)
(0.365046 -0.0314566 -0.00911916)
(0.389921 -0.0641161 -0.0106364)
(-0.0018465 0.0032034 -1.01693e-06)
(-0.00113091 0.00135203 0.00716777)
(-0.000350018 0.00100604 0.00623859)
(-0.000179237 0.000316533 -1.14499e-06)
(-0.000345826 0.00100352 -1.35113e-06)
(-0.00112842 0.0013522 -1.27845e-06)
(-0.00185217 0.0032075 0.00818749)
(-0.00281894 0.0169373 -2.44783e-06)
(-0.000489633 0.00550219 -1.55474e-06)
(-0.00244497 0.013895 0.00854952)
(-0.000601412 0.00697172 0.00668165)
(-0.0024383 0.0138922 -1.66403e-06)
(-0.000596752 0.0069674 -2.17229e-06)
(-0.00282749 0.0169453 0.00883566)
(-0.00192197 0.0281515 -6.55505e-06)
(-0.000283726 0.0119827 -2.72248e-06)
(-0.00125155 0.0270257 0.0107905)
(-0.000529342 0.0128755 0.00886373)
(-0.00123882 0.0270068 -2.82856e-06)
(-0.000522201 0.0128513 -4.85562e-06)
(-0.00194138 0.0281957 0.0115536)
(0.0125727 0.0114024 -3.28023e-05)
(0.00141204 0.0142767 -7.04626e-06)
(0.00672306 0.0223528 0.0157568)
(0.00387847 0.00984407 0.0141568)
(0.00677415 0.0222182 -1.0604e-05)
(0.00389458 0.00975134 -1.55361e-05)
(0.0124814 0.011588 0.0167325)
(0.134871 -0.000392622 1.50299e-07)
(0.0448244 -6.95325e-05 0.000447284)
(0.135687 1.74985e-05 0.000326775)
(0.0454983 1.64467e-05 1.25181e-06)
(0.0448259 -6.87462e-05 -7.8639e-08)
(0.13487 -0.000392815 0.000591915)
(0.135703 1.36226e-05 1.85109e-06)
(0.135962 -0.000394969 1.002e-06)
(0.0451138 -4.27706e-06 8.95434e-07)
(0.0451978 -8.09542e-05 0.00158925)
(0.135686 -4.21941e-05 0.0017107)
(0.045201 -8.06245e-05 5.71328e-07)
(0.135696 -4.3402e-05 1.34907e-06)
(0.135958 -0.000394137 0.00207628)
(0.138606 -0.00057146 1.68453e-06)
(0.0460079 -1.75109e-05 1.34701e-06)
(0.0461771 -0.000112439 0.00288212)
(0.138079 -0.000156424 0.00337504)
(0.0461835 -0.000112868 1.29448e-06)
(0.13809 -0.000158425 2.17434e-06)
(0.138598 -0.00056914 0.00376828)
(0.143203 -0.00102377 4.36734e-06)
(0.0474496 -7.9184e-05 3.00833e-06)
(0.0478453 -0.00019703 0.00428494)
(0.142095 -0.000504257 0.0051844)
(0.0478559 -0.000198013 3.02349e-06)
(0.142112 -0.000509725 4.34154e-06)
(0.143187 -0.00101795 0.00562095)
(0.152642 -0.00238096 1.17788e-05)
(0.0502521 -0.000252617 6.44473e-06)
(0.0512575 -0.000449904 0.00586754)
(0.149926 -0.00145976 0.00724117)
(0.051291 -0.000453708 7.78073e-06)
(0.149971 -0.00147598 9.28602e-06)
(0.152587 -0.00235937 0.00779069)
(0.184279 -0.018354 4.34991e-05)
(0.0597852 -0.00287272 1.66823e-05)
(0.069005 -0.00695588 0.00825)
(0.17191 -0.00983658 0.0100555)
(0.0691934 -0.00703288 2.69388e-05)
(0.172076 -0.00993567 2.68527e-05)
(0.184085 -0.0181571 0.0111393)
(0.253277 -0.113596 0.0134467)
(0.407192 -0.115515 0.0117381)
(0.413287 -0.141267 0.0116398)
(0.218016 -0.093979 -0.0138118)
(0.253147 -0.113396 -0.0134918)
(0.406923 -0.115589 -0.0117761)
(0.413192 -0.14115 -0.0116456)
(-0.00249838 0.00665909 -2.03446e-06)
(-0.000571252 0.00387686 -1.74746e-06)
(-0.000517401 0.00234112 0.00617744)
(-0.00275521 0.00982837 0.00826953)
(-0.000514149 0.0023389 -1.65055e-06)
(-0.00274823 0.00982851 -1.97955e-06)
(-0.00250474 0.00666402 0.0081522)
(-0.00184649 0.00319876 -2.69336e-06)
(-0.000179618 0.000315949 -1.30353e-06)
(-0.0011284 0.00134937 -0.00716431)
(-0.000349349 0.00100335 -0.00623605)
(-0.000346272 0.00100187 -1.3205e-06)
(-0.00112856 0.00135024 -1.93731e-06)
(-0.00184805 0.00320034 -0.00818366)
(-0.00249772 0.00664932 -1.79392e-06)
(-0.000571515 0.0038715 -1.21293e-06)
(-0.000516419 0.00233538 -0.00617484)
(-0.00274853 0.00980617 -0.00826502)
(-0.00051445 0.00233551 -1.07649e-06)
(-0.00274712 0.00981438 -2.20159e-06)
(-0.00249924 0.0066493 -0.00814825)
(-0.00283828 0.0211072 -2.49901e-06)
(-0.000755094 0.0106345 -3.93423e-06)
(-0.00063087 0.00876564 0.00701675)
(-0.00320067 0.0246202 0.00977199)
(-0.000625355 0.00875692 -2.35924e-06)
(-0.00318802 0.0246096 -5.56183e-06)
(-0.00284813 0.0211236 0.00928499)
(-0.00281753 0.0169099 -3.23099e-06)
(-0.000490016 0.00549425 -1.8139e-06)
(-0.00243742 0.0138615 -0.00854443)
(-0.000599724 0.00695295 -0.00667782)
(-0.00243733 0.0138704 -3.13972e-06)
(-0.000597157 0.00695702 -1.82452e-06)
(-0.00281796 0.016901 -0.00882993)
(-0.00283791 0.0210699 -4.38568e-06)
(-0.000755867 0.0106184 -1.84675e-06)
(-0.000629132 0.00874066 -0.00701231)
(-0.00318606 0.0245435 -0.00976357)
(-0.000626138 0.0087436 -2.39996e-06)
(-0.00318671 0.0245652 -2.79825e-06)
(-0.00283767 0.0210631 -0.00927793)
(-0.00162925 0.0290106 -6.67489e-06)
(-0.000712292 0.0156031 -1.03915e-05)
(-0.000619978 0.0140538 0.0096929)
(-0.0013867 0.0300655 0.0135066)
(-0.000609398 0.0140132 -5.70524e-06)
(-0.00134771 0.0299881 -1.79004e-05)
(-0.0016575 0.0290908 0.0125628)
(-0.00191733 0.0280793 -6.06088e-06)
(-0.000284327 0.0119623 -4.20742e-06)
(-0.00123199 0.026922 -0.0107801)
(-0.000524551 0.0128195 -0.00885547)
(-0.00123692 0.0269473 -7.28323e-06)
(-0.000522538 0.012826 -3.66879e-06)
(-0.00191223 0.0280614 -0.0115407)
(-0.0016196 0.028914 -9.53405e-06)
(-0.000708256 0.0155587 -2.4451e-06)
(-0.000612677 0.0139773 -0.00968281)
(-0.001306 0.0298219 -0.0134846)
(-0.00060868 0.0139798 -4.67634e-06)
(-0.00132502 0.0298665 -2.77411e-06)
(-0.00161207 0.0289091 -0.0125459)
(0.0336052 -0.0133249 -3.40104e-05)
(0.051078 -0.0292803 -7.46713e-05)
(0.0159917 -0.0039967 0.0166913)
(0.0716296 -0.0407107 0.0193786)
(0.0161057 -0.00418633 -1.5365e-05)
(0.0720242 -0.0409564 -9.16584e-05)
(0.0334158 -0.013053 0.0189561)
(0.012685 0.0111446 -5.02815e-06)
(0.00142746 0.0142061 -8.25978e-06)
(0.00688382 0.0219788 -0.0157265)
(0.00400067 0.00953202 -0.0141247)
(0.00683246 0.0220395 -1.49038e-05)
(0.00393351 0.00962618 -6.25841e-06)
(0.0127969 0.011017 -0.0166829)
(0.0338191 -0.0136642 -3.4312e-05)
(0.051401 -0.0295771 -6.39221e-05)
(0.0163603 -0.00459429 -0.016596)
(0.0728308 -0.0414107 -0.0192497)
(0.0162049 -0.0044202 -2.28195e-05)
(0.072358 -0.0412629 -3.33965e-05)
(0.0340643 -0.0138386 -0.0188649)
(0.134796 -0.0002692 3.81059e-07)
(0.0449238 -0.000132391 9.39569e-08)
(0.0446951 -5.27046e-05 0.000683863)
(0.13518 -0.000602148 0.00125135)
(0.0446986 -5.19969e-05 1.49388e-07)
(0.135189 -0.000601772 1.69624e-07)
(0.13479 -0.000269743 0.000917947)
(0.134879 -0.000392483 2.28483e-07)
(0.0455024 1.64589e-05 -1.18871e-06)
(0.0448317 -6.95212e-05 -0.000447574)
(0.135701 1.75776e-05 -0.000326814)
(0.0448297 -6.8672e-05 3.33311e-07)
(0.134883 -0.000393082 -0.000592301)
(0.13571 1.391e-05 -1.82195e-06)
(0.134804 -0.000268944 1.66746e-07)
(0.0449282 -0.000132367 4.89624e-07)
(0.0447026 -5.28022e-05 -0.00068433)
(0.135194 -0.000603136 -0.00125217)
(0.0447029 -5.19162e-05 2.63735e-07)
(0.135198 -0.000601754 6.46023e-07)
(0.134803 -0.000270166 -0.000918499)
(0.136592 -0.000303609 1.32023e-06)
(0.0457331 -0.000148442 7.14123e-07)
(0.0454202 -5.64828e-05 0.00189173)
(0.13725 -0.00070804 0.00287645)
(0.045422 -5.6404e-05 9.00401e-07)
(0.137258 -0.000708999 1.06403e-06)
(0.136586 -0.000302113 0.00249671)
(0.135972 -0.000394943 7.87063e-07)
(0.0451181 -4.37361e-06 8.52625e-08)
(0.0452042 -8.07472e-05 -0.00159038)
(0.135703 -4.3923e-05 -0.00171191)
(0.0452045 -8.03074e-05 5.27256e-07)
(0.135706 -4.35257e-05 -1.94432e-07)
(0.135973 -0.00039574 -0.00207816)
(0.136604 -0.000303596 5.11e-07)
(0.0457381 -0.000148186 1.09161e-06)
(0.0454269 -5.67443e-05 -0.00189313)
(0.137271 -0.000711052 -0.00287916)
(0.0454264 -5.62544e-05 4.57094e-07)
(0.137272 -0.0007092 1.45242e-06)
(0.136605 -0.000304262 -0.00249864)
(0.139637 -0.000509618 2.6759e-06)
(0.0469694 -0.00019526 2.06983e-06)
(0.0465244 -8.83117e-05 0.00320916)
(0.140621 -0.000987749 0.00464874)
(0.0465304 -8.88062e-05 1.87411e-06)
(0.140636 -0.000991174 3.00495e-06)
(0.139624 -0.000506259 0.00422973)
(0.138628 -0.000571146 1.72491e-06)
(0.0460155 -1.7031e-05 6.5041e-07)
(0.0461947 -0.00011345 -0.00288504)
(0.138107 -0.000158584 -0.00337811)
(0.0461932 -0.000112678 1.36855e-06)
(0.138107 -0.00015747 7.21477e-07)
(0.138632 -0.000573274 -0.00377179)
(0.139666 -0.000508833 1.95731e-06)
(0.0469818 -0.000194642 2.38306e-06)
(0.046545 -8.91168e-05 -0.00321281)
(0.140671 -0.000995426 -0.00465526)
(0.0465424 -8.82704e-05 1.47783e-06)
(0.140667 -0.00099125 3.16511e-06)
(0.13967 -0.000511134 -0.00423456)
(0.145153 -0.00103279 5.95952e-06)
(0.0492648 -0.000311944 4.69203e-06)
(0.0484984 -0.000174418 0.00464824)
(0.146926 -0.00167215 0.00663831)
(0.0485107 -0.000176255 4.29149e-06)
(0.146957 -0.00168226 7.0777e-06)
(0.145128 -0.00102392 0.00614735)
(0.143248 -0.00102347 4.19899e-06)
(0.047464 -7.8262e-05 2.19295e-06)
(0.0478795 -0.000199114 -0.00429139)
(0.142155 -0.000512458 -0.0051921)
(0.0478739 -0.000197117 3.12797e-06)
(0.142149 -0.000508614 2.95805e-06)
(0.14326 -0.00102964 -0.00562978)
(0.14521 -0.00103257 5.07558e-06)
(0.0492903 -0.000310623 4.99673e-06)
(0.0485414 -0.000177603 -0.0046566)
(0.147045 -0.00169563 -0.0066527)
(0.0485333 -0.000175264 3.7147e-06)
(0.147025 -0.00168358 6.7588e-06)
(0.145225 -0.00104017 -0.0061588)
(0.157308 -0.00321418 1.49615e-05)
(0.0551938 -0.00125837 1.27353e-05)
(0.0529045 -0.000608719 0.00629846)
(0.162179 -0.00546202 0.00924778)
(0.0529503 -0.000615889 1.00805e-05)
(0.162291 -0.00551492 2.14821e-05)
(0.15722 -0.00318023 0.00847817)
(0.15274 -0.00238671 1.00195e-05)
(0.0502833 -0.000251011 5.57769e-06)
(0.0513544 -0.000462274 -0.00588307)
(0.150082 -0.00149264 -0.00725873)
(0.0513285 -0.00045298 7.5544e-06)
(0.150055 -0.00147721 7.99627e-06)
(0.152785 -0.0024123 -0.00781283)
(0.157428 -0.00322637 1.38259e-05)
(0.0552421 -0.00126161 1.18267e-05)
(0.0530258 -0.000629593 -0.00631796)
(0.162525 -0.00560595 -0.00928132)
(0.05299 -0.000616344 9.76538e-06)
(0.162432 -0.0055412 1.5155e-05)
(0.157485 -0.00326514 -0.00850704)
(0.205637 -0.0364882 4.86095e-05)
(0.113623 -0.0406518 0.000119676)
(0.0900747 -0.0182924 0.0100851)
(0.222991 -0.0621392 0.0154391)
(0.0904827 -0.0185652 5.65364e-05)
(0.223222 -0.0629788 3.19308e-05)
(0.205394 -0.0360502 0.012157)
(0.184428 -0.0185016 3.10609e-05)
(0.0598345 -0.00288542 1.61733e-05)
(0.0694258 -0.00715238 -0.00829594)
(0.172382 -0.0101119 -0.0101056)
(0.0692475 -0.00707057 2.65019e-05)
(0.172235 -0.010007 2.43007e-05)
(0.184692 -0.0186962 -0.011206)
(0.205656 -0.0368128 6.79121e-05)
(0.113797 -0.0408727 1.8944e-05)
(0.0904814 -0.0187813 -0.0101872)
(0.223258 -0.063443 -0.0154459)
(0.0904257 -0.0186641 7.44574e-05)
(0.223206 -0.0633069 3.95659e-05)
(0.205874 -0.0371324 -0.0122528)
)
;

boundaryField
{
    fixedWalls
    {
        type            noSlip;
    }
    frontAndBack
    {
        type            empty;
    }
    right
    {
        type            zeroGradient;
    }
    left
    {
        type            fixedValue;
        value           uniform (0.5 0 0);
    }
    model
    {
        type            noSlip;
    }
}


// ************************************************************************* //
