/*--------------------------------*- C++ -*----------------------------------*\
  =========                 |
  \\      /  F ield         | OpenFOAM: The Open Source CFD Toolbox
   \\    /   O peration     | Website:  https://openfoam.org
    \\  /    A nd           | Version:  7
     \\/     M anipulation  |
\*---------------------------------------------------------------------------*/
FoamFile
{
    version     2.0;
    format      ascii;
    class       volScalarField;
    location    "0.5";
    object      p;
}
// * * * * * * * * * * * * * * * * * * * * * * * * * * * * * * * * * * * * * //

dimensions      [0 2 -2 0 0 0 0];

internalField   nonuniform List<scalar> 
733
(
-0.258859
-0.260634
-0.227006
-0.163515
-0.0810788
0.00689886
0.0844477
0.138825
0.164818
0.164338
0.130963
0.0979233
-0.00968979
-0.15107
-0.256769
-0.270219
-0.243633
-0.190118
-0.112036
-0.0233316
0.0563976
0.114863
0.144251
0.14778
0.114771
0.0763814
-0.0538734
-0.0905298
-0.30081
-0.303506
-0.276888
-0.224371
-0.145645
-0.0546368
0.0294482
0.092646
0.126844
0.136285
0.116659
0.0900462
0.0390525
-0.00189401
-0.412236
-0.343942
-0.30143
-0.247574
-0.169935
-0.0788876
0.00604492
0.0710004
0.109284
0.125452
0.120873
0.10926
0.0913484
0.077194
-0.00885566
-0.0534451
-0.103772
-0.159738
-0.224163
-0.307821
-0.456018
-0.338509
-0.290764
-0.238818
-0.166173
-0.081225
-0.00212566
0.0591299
0.0982291
0.119725
0.126932
0.129271
0.130018
0.135395
-0.0234221
-0.070574
-0.12187
-0.178266
-0.237754
-0.291279
-0.311256
-0.284447
-0.243316
-0.19366
-0.130542
-0.0595441
0.00651062
0.0590326
0.0956361
0.120119
0.135268
0.148189
0.159522
0.176911
-0.0208018
-0.0617564
-0.104968
-0.149186
-0.190268
-0.222294
-0.234846
-0.2192
-0.184659
-0.140212
-0.0882165
-0.032562
0.0196255
0.0632932
0.096966
0.123274
0.143702
0.163856
0.181722
0.206306
-0.0169345
-0.0508658
-0.0847749
-0.116643
-0.143735
-0.162485
-0.168167
-0.156435
-0.129868
-0.094349
-0.0535889
-0.0104721
0.031142
0.0682637
0.0996124
0.126937
0.150687
0.175566
0.197736
0.226784
-0.0133109
-0.0406594
-0.0663583
-0.0884801
-0.105887
-0.11666
-0.11837
-0.108945
-0.0890014
-0.0615536
-0.0294476
0.00499381
0.0392887
0.0716207
0.100985
0.128725
0.154587
0.182678
0.207906
0.240021
-0.0104253
-0.0319766
-0.0511777
-0.066523
-0.0778447
-0.0841688
-0.0839904
-0.0761419
-0.0607012
-0.0391663
-0.0134332
0.0147139
0.0436002
0.0722069
0.0997938
0.127516
0.154649
0.184951
0.212428
0.246902
-0.00816685
-0.0249585
-0.0393493
-0.0502376
-0.0578191
-0.0615835
-0.0605187
-0.053878
-0.0416083
-0.0245023
-0.00373048
0.0195031
0.0441091
0.0695795
0.0953655
0.122588
0.15027
0.18204
0.211242
0.247799
-0.00640922
-0.0194944
-0.0304024
-0.0383302
-0.0435768
-0.045877
-0.0445343
-0.039033
-0.0292795
-0.0156989
0.00103276
0.0201803
0.0410675
0.0635429
0.0872321
0.113347
0.140843
0.173424
0.203982
0.242641
-0.00506633
-0.0153387
-0.0237302
-0.0296731
-0.0334864
-0.0350366
-0.0338274
-0.0294844
-0.0218993
-0.0112999
0.00193804
0.0174045
0.0347102
0.0539818
0.0750245
0.0992339
0.125653
0.158266
0.189834
0.230745
-0.00405329
-0.0122187
-0.0188031
-0.0234314
-0.026413
-0.0276823
-0.0268765
-0.023722
-0.0181216
-0.0102058
-0.000187892
0.0117236
0.0253092
0.0409027
0.0584586
0.0796679
0.103845
0.135249
0.167131
0.210155
-0.00329655
-0.0098975
-0.0151984
-0.0189828
-0.0215382
-0.022834
-0.0226064
-0.0206655
-0.0169454
-0.0115434
-0.00461481
0.00372769
0.0132913
0.0245532
0.0374618
0.0540824
0.0738832
0.101973
0.132593
0.176487
-0.00274069
-0.00818783
-0.0125913
-0.0158693
-0.0182747
-0.019793
-0.0202404
-0.0195019
-0.0175589
-0.0145193
-0.010567
-0.00580508
-0.000650819
0.00565413
0.0125633
0.0226772
0.0348164
0.0559352
0.0808796
0.121087
-0.00234708
-0.00695613
-0.0107573
-0.0137777
-0.0162143
-0.0180553
-0.0191858
-0.0195596
-0.0192161
-0.0183059
-0.0171103
-0.0158864
-0.0149972
-0.0139623
-0.0143513
-0.0125525
-0.0127117
-0.00333326
0.00559257
0.0301045
-0.00209599
-0.00613195
-0.00957508
-0.0125179
-0.0150784
-0.0172404
-0.0189475
-0.0202159
-0.0211457
-0.0219491
-0.0230048
-0.0244753
-0.0273289
-0.0311633
-0.0389478
-0.0461457
-0.0636396
-0.0704483
-0.0957618
-0.101966
-0.00198109
-0.00570325
-0.00900565
-0.011984
-0.0146736
-0.0170571
-0.0191206
-0.0209177
-0.0225845
-0.0243711
-0.0266399
-0.0298137
-0.0348717
-0.0419175
-0.0542945
-0.0684499
-0.102229
-0.126394
-0.23991
-0.246703
-0.00200232
-0.00568188
-0.00904138
-0.0121244
-0.0149132
-0.0173898
-0.0195555
-0.021472
-0.0232729
-0.0251897
-0.0276205
-0.0310256
-0.0362056
-0.0437451
-0.0558996
-0.0716694
-0.102537
-0.123754
-0.214224
-0.33445
-0.261784
-0.254783
-0.263782
-0.258768
-0.261702
-0.254682
-0.263691
-0.268809
-0.28142
-0.281588
-0.256651
-0.26868
-0.281201
-0.281392
-0.316088
-0.367207
-0.335908
-0.300534
-0.315774
-0.366651
-0.335395
-0.393872
-0.514182
-0.392277
-0.411576
-0.393202
-0.511188
-0.391077
-0.0405481
-0.0126731
-0.0351457
-0.00885863
-0.0405741
-0.0126816
-0.0351702
-0.0895878
-0.0603165
-0.0844888
-0.0534875
-0.0896704
-0.060363
-0.0845533
-0.143996
-0.112765
-0.139666
-0.103864
-0.144206
-0.112875
-0.139837
-0.205965
-0.171573
-0.202984
-0.159989
-0.206455
-0.171836
-0.203375
-0.282855
-0.241189
-0.281051
-0.224794
-0.284288
-0.241794
-0.281967
-0.509972
-0.325638
-0.365415
-0.309756
-0.516529
-0.326863
-0.366289
-0.259547
-0.260562
-0.256499
-0.258857
-0.256493
-0.26058
-0.259511
-0.265811
-0.256748
-0.261329
-0.261389
-0.26134
-0.261357
-0.265798
-0.320671
-0.300792
-0.305994
-0.318738
-0.306044
-0.318615
-0.320778
-0.425521
-0.412048
-0.405052
-0.454877
-0.404877
-0.454362
-0.426526
-0.0198835
-0.0198253
-0.009219
-0.00895197
-0.0198108
-0.0198859
-0.00932865
-0.065528
-0.0534805
-0.0653085
-0.0542616
-0.0653193
-0.0543056
-0.0655095
-0.117394
-0.10382
-0.116935
-0.105009
-0.116961
-0.10508
-0.117367
-0.175777
-0.159828
-0.17467
-0.161703
-0.174733
-0.16181
-0.175703
-0.245509
-0.224358
-0.242238
-0.227796
-0.242456
-0.22801
-0.245254
-0.344921
-0.308505
-0.339689
-0.316141
-0.340793
-0.316869
-0.343709
-0.423872
-0.38746
-0.362451
-0.454711
-0.422851
-0.386972
-0.361987
-0.25739
-0.254774
-0.254141
-0.259053
-0.254113
-0.259086
-0.257412
-0.259485
-0.258802
-0.260468
-0.25641
-0.256438
-0.260519
-0.259415
-0.257327
-0.254713
-0.254049
-0.258943
-0.254058
-0.259017
-0.257313
-0.27414
-0.281312
-0.269336
-0.284223
-0.269303
-0.284125
-0.274122
-0.265717
-0.256678
-0.2612
-0.261246
-0.261259
-0.261273
-0.265643
-0.274025
-0.281191
-0.269161
-0.283984
-0.269203
-0.283988
-0.27393
-0.341028
-0.366832
-0.3403
-0.359935
-0.340153
-0.359441
-0.3411
-0.320471
-0.300646
-0.305689
-0.318389
-0.305878
-0.318439
-0.320392
-0.340788
-0.36659
-0.339862
-0.359273
-0.33995
-0.359137
-0.340597
-0.465731
-0.513503
-0.507772
-0.451666
-0.507655
-0.449802
-0.466369
-0.425083
-0.411788
-0.404218
-0.454105
-0.40455
-0.454052
-0.425358
-0.464973
-0.512154
-0.50671
-0.448971
-0.507217
-0.448739
-0.464414
-0.0302865
-0.0405343
-0.029596
-0.04044
-0.0295929
-0.0404236
-0.0302829
-0.0198912
-0.00895336
-0.0198373
-0.00922047
-0.0198177
-0.0198992
-0.00932918
-0.0302988
-0.040551
-0.0296151
-0.0404664
-0.0296048
-0.0404406
-0.0303023
-0.0782097
-0.0895889
-0.0772459
-0.0897063
-0.0772763
-0.0897101
-0.0781696
-0.0655653
-0.0535063
-0.0653594
-0.054291
-0.0653502
-0.0543252
-0.0655727
-0.0782489
-0.0896384
-0.0773093
-0.0897939
-0.0773141
-0.0897641
-0.0782372
-0.131683
-0.144026
-0.130195
-0.144612
-0.130247
-0.144646
-0.131621
-0.117469
-0.103876
-0.11706
-0.105113
-0.117035
-0.105141
-0.11749
-0.131783
-0.144149
-0.130353
-0.144833
-0.13034
-0.144779
-0.13179
-0.192478
-0.206059
-0.18987
-0.207766
-0.189986
-0.207879
-0.19235
-0.175962
-0.159973
-0.174972
-0.161972
-0.174905
-0.161966
-0.176023
-0.192712
-0.206323
-0.190269
-0.208292
-0.190205
-0.208171
-0.192771
-0.267523
-0.28331
-0.261347
-0.289303
-0.261678
-0.289855
-0.267149
-0.245935
-0.224675
-0.243063
-0.228473
-0.242841
-0.228365
-0.246121
-0.268046
-0.28381
-0.262452
-0.29082
-0.262144
-0.290449
-0.268325
-0.369674
-0.515911
-0.388172
-0.408338
-0.39012
-0.409526
-0.368426
-0.345821
-0.30909
-0.342662
-0.318221
-0.341516
-0.317615
-0.346661
-0.370654
-0.516167
-0.394313
-0.411291
-0.391503
-0.409293
-0.372671
)
;

boundaryField
{
    fixedWalls
    {
        type            zeroGradient;
    }
    frontAndBack
    {
        type            empty;
    }
    right
    {
        type            fixedValue;
        value           uniform 0;
    }
    left
    {
        type            zeroGradient;
    }
    model
    {
        type            zeroGradient;
    }
}


// ************************************************************************* //
