/*--------------------------------*- C++ -*----------------------------------*\
  =========                 |
  \\      /  F ield         | OpenFOAM: The Open Source CFD Toolbox
   \\    /   O peration     | Website:  https://openfoam.org
    \\  /    A nd           | Version:  7
     \\/     M anipulation  |
\*---------------------------------------------------------------------------*/
FoamFile
{
    version     2.0;
    format      ascii;
    class       surfaceScalarField;
    location    "0.5";
    object      phi;
}
// * * * * * * * * * * * * * * * * * * * * * * * * * * * * * * * * * * * * * //

dimensions      [0 3 -1 0 0 0 0];

internalField   nonuniform List<scalar> 
1690
(
-3.39339e-07
3.39354e-07
-1.61834e-11
-0.000477548
0.000298645
3.99631e-05
4.95397e-05
3.99266e-05
4.94736e-05
-0.00063162
0.000154072
-0.000593099
-3.85214e-05
-0.000384186
-0.000208912
-5.37638e-05
-0.000330423
0.000331708
-0.000385472
0.000724657
-0.000392949
0.00108394
-0.000359284
0.00142766
-0.000343724
0.00167473
-0.000247064
0.00214545
-0.000470726
0.00195795
0.000187501
-0.00304078
-2.76561e-06
-1.94718e-10
-1.15701e-06
3.92281e-06
-0.000473054
0.00052936
5.79374e-05
6.33442e-05
5.78506e-05
6.32075e-05
-0.000467847
0.000148865
-0.000233487
-0.000272882
0.000190929
-0.000633328
0.000745158
-0.000884652
0.00136424
-0.00100456
0.00198464
-0.00101335
0.00256032
-0.000934959
0.00310768
-0.000891087
0.00356797
-0.000707355
0.00423673
-0.00113948
0.00457057
-0.000146344
-0.00346894
-7.96851e-06
-1.70948e-10
-6.83891e-07
8.65257e-06
0.000174248
0.00031512
1.26144e-05
7.64515e-06
1.24054e-05
7.3267e-06
0.000509731
-0.000186618
0.000932588
-0.000695739
0.0014266
-0.00112734
0.00196737
-0.00142543
0.00252211
-0.00155929
0.00306354
-0.00155477
0.00356436
-0.00143578
0.00403447
-0.0013612
0.00443378
-0.00110666
0.0048005
-0.0015062
0.00514757
-0.000493416
-0.00332011
-1.14426e-05
-1.80173e-09
1.27004e-06
1.01744e-05
0.00156658
-0.00045164
-0.000143928
-0.000255087
-0.000144619
-0.000256191
0.00219622
-0.000816255
0.00272064
-0.00122016
0.00316844
-0.00157514
0.00355677
-0.00181375
0.00389585
-0.00189837
0.00419795
-0.00185688
0.00446625
-0.00170408
0.00471062
-0.00160557
0.00492792
-0.00132396
0.00506214
-0.00164043
0.00525915
-0.000690425
-0.00305976
2.89647e-05
1.19916e-06
1.08367e-09
-2.84116e-05
3.36905e-10
2.84123e-05
-1.04408e-09
-2.89417e-05
4.59326e-10
2.90269e-05
-8.56139e-08
-2.98346e-05
8.52442e-10
3.00538e-05
-2.20037e-07
-3.14546e-05
1.85208e-09
3.20145e-05
-5.6172e-07
-3.58521e-05
6.74348e-09
3.95288e-05
-3.68346e-06
4.04921e-05
-0.000112108
0.000562601
-0.000180252
-5.10721e-08
4.06744e-05
1.24817e-05
1.2725e-05
-0.000112401
-0.000131821
-0.000132341
0.0041
-0.00102914
-0.000716264
-0.00104476
-0.00071653
-0.00104494
0.00455145
-0.00126771
0.0048802
-0.00154891
0.00509437
-0.00178931
0.00521162
-0.001931
0.00525972
-0.00194647
0.00527305
-0.0018702
0.00527559
-0.00170662
0.00527691
-0.00160689
0.00529447
-0.00134152
0.00524912
-0.00159508
0.00529508
-0.000736383
-0.00276357
0.00631854
-4.4058e-05
-3.97734e-06
5.3031e-06
-3.97493e-06
5.31009e-06
0.00636
-6.82477e-05
2.3371e-06
1.10261e-05
2.3457e-06
1.10749e-05
0.0064268
-0.000116417
7.10731e-06
1.76635e-05
7.11866e-06
1.77328e-05
0.00653785
-0.000202441
1.53586e-05
3.02052e-05
1.54508e-05
3.03795e-05
0.00669128
-0.000346348
3.43947e-05
6.17273e-05
3.46449e-05
6.21426e-05
0.00676845
-0.000572457
9.73812e-05
0.000149481
9.8082e-05
0.000150352
0.00677004
-0.000833208
0.000203051
0.000212513
0.000203511
0.000212541
0.00680076
-0.00105987
0.00680438
-0.00127133
0.00673892
-0.00148345
0.00660229
-0.00165268
0.00641043
-0.00173914
0.00619203
-0.00172807
0.00597837
-0.00165654
0.00579198
-0.00152024
0.00563358
-0.00144848
0.00551762
-0.00122556
0.00536912
-0.00144658
0.00532449
-0.000691756
-0.00243798
0.00792999
-7.11866e-05
0.00795497
-9.3227e-05
0.00798405
-0.000145498
0.00801715
-0.000235535
0.0080396
-0.000368798
0.00800998
-0.000542843
0.00792175
-0.00074498
0.00780217
-0.000940286
0.0076417
-0.00111085
0.00741957
-0.00126132
0.00714152
-0.00137463
0.00683314
-0.00143076
0.00652456
-0.00141949
0.00624051
-0.00137248
0.00599537
-0.0012751
0.00578336
-0.00123648
0.00561644
-0.00105864
0.00542653
-0.00125667
0.00534156
-0.000606787
-0.00209552
0.00840516
-7.78993e-05
0.00841068
-9.8741e-05
0.00841131
-0.000146128
0.00839995
-0.000224172
0.00836414
-0.000332995
0.00828757
-0.000466271
0.00815913
-0.000616536
0.00798503
-0.000766192
0.00777172
-0.000897539
0.00751543
-0.00100503
0.00722229
-0.00108149
0.00691194
-0.00112041
0.00660776
-0.00111532
0.0063262
-0.00109092
0.00607776
-0.00102665
0.00585416
-0.00101288
0.00566955
-0.000874028
0.00546059
-0.00104771
0.00535733
-0.000503521
-0.00173739
0.00829592
-6.93116e-05
0.00828845
-9.1274e-05
0.00827407
-0.000131754
0.00824482
-0.000194918
0.00819089
-0.000279063
0.00810391
-0.000379295
0.00797696
-0.000489585
0.00780982
-0.000599052
0.00760726
-0.000694979
0.00737332
-0.000771093
0.00711469
-0.000822855
0.00684501
-0.00085074
0.00657999
-0.000850292
0.00632912
-0.000840051
0.00610038
-0.000797911
0.00588437
-0.000796875
0.00569881
-0.00068847
0.00548209
-0.000830995
0.00537146
-0.000392896
-0.00136533
0.0079834
-5.95841e-05
0.00797065
-7.85294e-05
0.00795114
-0.000112243
0.00791778
-0.000161558
0.0078641
-0.000225378
0.00778481
-0.000300011
0.00767496
-0.000379727
0.00753356
-0.000457657
0.00736345
-0.000524867
0.00716933
-0.000576971
0.00695754
-0.000611072
0.00673685
-0.000630041
0.00651652
-0.00062997
0.00630174
-0.00062527
0.00609825
-0.000594422
0.00589638
-0.000595002
0.00571713
-0.000509218
0.00549797
-0.000611834
0.00538491
-0.000279833
-0.000980023
0.00764959
-4.96089e-05
0.00763627
-6.52026e-05
0.00761622
-9.21989e-05
0.0075852
-0.000130532
0.00753798
-0.000178156
0.00747074
-0.000232775
0.00738089
-0.000289877
0.00726706
-0.000343826
0.00713114
-0.000388947
0.0069767
-0.000422534
0.00680851
-0.000442881
0.00663143
-0.000452961
0.00645133
-0.000449868
0.00626935
-0.000443295
0.0060908
-0.000415873
0.00590438
-0.000408573
0.00573382
-0.000338659
0.00551371
-0.000391726
0.00540026
-0.000166389
-0.000579558
0.00735801
-4.04176e-05
0.00734573
-5.29258e-05
0.00732766
-7.41289e-05
0.00730027
-0.000103144
0.00726074
-0.000138619
0.00720599
-0.00017803
0.00713399
-0.000217871
0.00704428
-0.000254117
0.00693798
-0.00028265
0.00681715
-0.000301699
0.00668519
-0.000310925
0.00654433
-0.000312105
0.00639773
-0.000303267
0.0062443
-0.000289866
0.00608854
-0.000260107
0.0059171
-0.000237136
0.00575593
-0.000177484
0.00553498
-0.000170784
0.00542107
-5.24797e-05
-0.000158584
0.00711947
-3.25111e-05
0.00710874
-4.22051e-05
0.00709307
-5.84529e-05
0.0070702
-8.02801e-05
0.00703777
-0.000106181
0.00699389
-0.000134152
0.00693717
-0.000161157
0.00686724
-0.000184181
0.00678482
-0.000200232
0.00669143
-0.000208308
0.00658872
-0.000208217
0.00647772
-0.0002011
0.00635937
-0.000184924
0.00623113
-0.000161618
0.00609673
-0.000125714
0.00593971
-8.01169e-05
0.00578944
-2.72142e-05
0.00556589
5.27653e-05
0.00545145
6.19651e-05
0.000292466
0.00692409
-2.54214e-05
0.0069149
-3.30124e-05
0.00690191
-4.5468e-05
0.00688323
-6.15976e-05
0.00685713
-8.00817e-05
0.00682239
-9.94121e-05
0.00677801
-0.000116779
0.00672405
-0.00013022
0.00666095
-0.000137128
0.00658964
-0.000136996
0.00651115
-0.000129734
0.00642504
-0.000114991
0.00633189
-9.17672e-05
0.00622692
-5.66488e-05
0.00611395
-1.27477e-05
0.00597269
6.11455e-05
0.0058357
0.000109771
0.00561002
0.00027845
0.00549644
0.00017554
0.00078821
0.00674549
-1.95231e-05
0.00673766
-2.51774e-05
0.00672684
-3.46509e-05
0.00671156
-4.63137e-05
0.00669081
-5.93342e-05
0.00666344
-7.2047e-05
0.00662929
-8.26237e-05
0.00658787
-8.88025e-05
0.0065403
-8.95587e-05
0.00648727
-8.39612e-05
0.00642899
-7.14538e-05
0.00636508
-5.10799e-05
0.00629489
-2.15848e-05
0.00621403
2.42118e-05
0.00612526
7.60265e-05
0.00600521
0.000181191
0.00588958
0.000225407
0.00566456
0.000503466
0.00556012
0.000279981
0.00134743
0.00652152
-1.4404e-05
0.00651495
-1.86069e-05
0.00650591
-2.5605e-05
0.00649357
-3.39821e-05
0.00647691
-4.26661e-05
0.00645528
-5.04178e-05
0.00642862
-5.59661e-05
0.00639755
-5.77337e-05
0.0063624
-5.44046e-05
0.00632414
-4.57078e-05
0.00628327
-3.05794e-05
0.00623939
-7.20595e-06
0.00619268
2.51282e-05
0.00613778
7.91146e-05
0.00607899
0.00013481
0.00599291
0.000267275
0.0059135
0.000304813
0.00570864
0.000708327
0.00563749
0.000351132
0.00198372
0.00611826
-9.81019e-06
0.00611256
-1.29075e-05
0.00610488
-1.7921e-05
0.00609435
-2.34517e-05
0.00608038
-2.86985e-05
0.00606285
-3.28925e-05
0.00604195
-3.50677e-05
0.00601836
-3.41407e-05
0.00599316
-2.92049e-05
0.00596722
-1.97711e-05
0.00594173
-5.08487e-06
0.00591695
1.75719e-05
0.00589309
4.89869e-05
0.00587035
0.000101859
0.00585003
0.000155127
0.00581984
0.000297472
0.0057995
0.000325151
0.00566853
0.000839299
0.0056927
0.000326956
0.00267502
0.00529496
-5.78881e-06
0.00528996
-7.90868e-06
0.00528301
-1.09695e-05
0.00527342
-1.38695e-05
0.00526111
-1.6386e-05
0.0052464
-1.81811e-05
0.00522967
-1.83432e-05
0.00521203
-1.64958e-05
0.00519476
-1.19362e-05
0.00517943
-4.43979e-06
0.00516738
6.96549e-06
0.00516031
2.46399e-05
0.00516122
4.80817e-05
0.00517434
8.87383e-05
0.00520094
0.000128525
0.00525263
0.000245779
0.00531851
0.000259277
0.00536326
0.000794548
0.00555361
0.000136598
0.00322694
0.00375918
-2.44359e-06
0.0037545
-3.22841e-06
0.00374786
-4.33321e-06
0.00373924
-5.24812e-06
0.00372873
-5.87449e-06
0.00371672
-6.17589e-06
0.00370417
-5.79076e-06
0.00369221
-4.54008e-06
0.00368246
-2.18426e-06
0.00367641
1.61667e-06
0.00367638
6.98971e-06
0.00368583
1.51896e-05
0.00370814
2.57723e-05
0.00375256
4.43235e-05
0.00381971
6.13685e-05
0.00394898
0.000116517
0.00410204
0.00010621
0.00451904
0.000377555
0.0047868
-0.000131162
0.00301194
0.00140296
0.00139973
0.0013954
0.00139015
0.00138428
0.0013781
0.00137231
0.00136777
0.00136558
0.0013672
0.00137419
0.00138938
0.00141515
0.00145948
0.00152084
0.00163736
0.00174357
0.00212113
0.00198996
3.13787e-05
-3.6708e-09
2.30148e-06
1.99184e-06
1.99104e-06
2.30373e-06
-8.65743e-11
-1.79386e-06
-9.71661e-07
-4.36719e-09
6.66057e-05
3.42778e-06
3.73143e-06
3.7283e-06
3.42948e-06
3.08584e-10
-3.38863e-07
3.38553e-07
3.13434e-05
2.30064e-06
1.98896e-06
1.99049e-06
2.29951e-06
2.75938e-06
2.95958e-10
-1.78996e-06
-9.69722e-07
6.65134e-05
3.42591e-06
3.72375e-06
3.72541e-06
3.4241e-06
0.000106431
-6.16549e-09
4.74431e-06
4.31077e-06
4.3095e-06
4.75376e-06
-1.02332e-09
-6.56245e-06
-1.40503e-06
-9.39051e-09
0.000150324
4.58033e-06
5.16012e-06
5.14122e-06
4.57937e-06
2.54483e-10
-1.15473e-06
3.91386e-06
0.000106262
4.74068e-06
4.30415e-06
4.30744e-06
4.74377e-06
7.94902e-06
-9.38713e-11
-6.54748e-06
-1.40144e-06
0.000150037
4.57658e-06
5.14379e-06
5.13508e-06
4.56792e-06
0.000152938
-1.50963e-08
2.924e-06
2.07193e-06
2.07278e-06
2.94617e-06
-3.57524e-09
-1.03897e-05
-1.04938e-06
-2.47696e-08
0.00015281
1.5724e-06
2.34609e-06
2.29763e-06
1.58191e-06
1.06595e-09
-6.79076e-07
8.62703e-06
0.000152477
2.91426e-06
2.05226e-06
2.06595e-06
2.91754e-06
1.13743e-05
-5.83507e-10
-1.03419e-05
-1.03182e-06
0.000152131
1.5558e-06
2.27703e-06
2.27077e-06
1.54447e-06
4.21393e-05
-3.24743e-08
-9.01469e-06
-7.62439e-06
-7.63195e-06
-8.95385e-06
-9.8399e-09
4.07423e-06
3.64277e-05
-5.82102e-08
-6.13388e-05
-2.88359e-05
-4.69172e-05
-4.70233e-05
-2.87743e-05
2.03469e-09
1.31134e-06
1.00609e-05
4.12064e-05
-9.1117e-06
-7.75126e-06
-7.69818e-06
-9.16562e-06
-4.13062e-05
1.40094e-08
4.47544e-06
3.68168e-05
-6.2311e-05
-2.8956e-05
-4.74427e-05
-4.72412e-05
-2.90916e-05
-1.3162e-10
-2.82795e-05
-1.31947e-07
0.000834978
4.60685e-10
-6.50056e-07
-1.55587e-06
-6.42628e-07
-1.53545e-06
1.17582e-09
0.000839783
-3.14489e-07
5.65964e-07
5.61582e-07
-3.16083e-07
1.06599e-09
2.8972e-05
1.19915e-06
2.84193e-05
-2.19332e-10
-2.82869e-05
-1.32239e-07
0.000835015
-6.5469e-07
-1.55124e-06
-6.51535e-07
-1.53089e-06
0.000839829
-3.14722e-07
5.66664e-07
5.6144e-07
-3.15775e-07
9.67895e-12
-2.8676e-05
-2.6576e-07
0.000841266
2.23129e-09
5.40978e-07
-1.24635e-07
-1.14394e-07
5.49302e-07
3.08865e-09
0.000849242
4.28876e-07
1.10052e-06
1.09672e-06
4.21312e-07
1.79341e-10
2.84166e-05
2.52323e-09
2.8948e-05
-3.04117e-10
-2.86812e-05
-2.66479e-07
0.000841319
5.35367e-07
-1.096e-07
-1.07408e-07
5.39337e-07
0.000849338
4.34203e-07
1.09919e-06
1.09245e-06
4.32559e-07
2.79335e-10
-2.94613e-05
-3.73576e-07
0.000854029
5.25087e-09
9.29482e-07
2.29799e-07
2.29158e-07
9.26306e-07
8.1903e-09
0.000867019
7.73468e-07
1.56308e-06
1.56133e-06
7.67393e-07
1.13499e-10
2.90396e-05
-9.16704e-08
2.985e-05
-5.44432e-10
-2.94785e-05
-3.7094e-07
0.000854125
9.36226e-07
2.28131e-07
2.29811e-07
9.42833e-07
0.000867193
7.75032e-07
1.56771e-06
1.55786e-06
7.73183e-07
9.01034e-10
-3.0842e-05
-6.13556e-07
0.000877732
1.25991e-08
1.6033e-06
7.10509e-07
7.14823e-07
1.60411e-06
1.8761e-08
0.000899814
1.49473e-06
2.56213e-06
2.56612e-06
1.48175e-06
-1.56637e-10
3.0073e-05
-2.2284e-07
3.14947e-05
-1.24917e-09
-3.08731e-05
-6.20369e-07
0.000877999
1.60634e-06
7.15245e-07
7.16829e-07
1.61867e-06
0.000900238
1.50465e-06
2.57884e-06
2.56559e-06
1.50977e-06
4.41598e-09
-3.39743e-05
-1.88218e-06
0.000923406
2.93154e-08
3.421e-06
1.95717e-06
1.97865e-06
3.41629e-06
4.50125e-08
0.000963814
3.97494e-06
6.6762e-06
6.68101e-06
3.94286e-06
-1.12683e-09
3.20676e-05
-5.71727e-07
3.59661e-05
-4.62991e-09
-3.40567e-05
-1.90473e-06
0.000924056
3.43055e-06
1.9786e-06
1.97968e-06
3.46743e-06
0.000964855
3.97314e-06
6.7429e-06
6.6936e-06
3.97873e-06
9.43298e-08
-6.88537e-05
-4.33483e-05
0.001007
6.10545e-08
1.70792e-05
9.98353e-06
1.00477e-05
1.70256e-05
4.6149e-08
0.00102434
2.92619e-05
3.6771e-05
3.69083e-05
2.91525e-05
-6.5559e-09
3.9662e-05
-3.68933e-06
0.000112454
-5.66778e-09
-6.9073e-05
-4.33755e-05
0.00100874
1.70537e-05
1.00465e-05
1.00153e-05
1.7145e-05
0.00102611
2.92129e-05
3.72309e-05
3.73416e-05
2.92379e-05
5.5628e-07
-1.65287e-06
-4.94338e-10
3.3995e-06
-9.3997e-10
2.11388e-10
1.6523e-06
-6.09839e-11
-5.56977e-07
8.9639e-07
3.39672e-07
-3.3917e-07
-5.18044e-10
8.96473e-07
-5.65247e-10
-8.01408e-10
3.39856e-06
-1.18449e-05
1.28124e-06
-1.79673e-10
1.53096e-05
-1.43787e-09
-1.15564e-06
3.92152e-06
-2.76536e-06
-7.1655e-10
1.51187e-10
1.18441e-05
-8.69045e-06
-3.02632e-10
-1.28131e-06
5.20442e-06
-8.68969e-06
-1.22824e-09
5.20333e-06
-8.55174e-10
1.53163e-05
-2.36712e-05
8.52837e-07
1.47608e-09
2.57439e-05
-3.01401e-09
-6.7713e-07
8.64421e-06
-7.96577e-06
-1.47887e-09
6.82101e-10
2.36816e-05
-2.22942e-05
-1.17015e-09
-8.54531e-07
9.50827e-06
-2.22724e-05
-2.504e-09
9.49766e-06
-1.77886e-09
2.57747e-05
-2.13494e-05
-2.54767e-06
1.42322e-08
1.48745e-05
-6.36396e-09
1.2893e-06
1.01331e-05
-1.14216e-05
-2.57518e-09
-2.43747e-09
2.14292e-05
-2.77811e-05
-5.0867e-09
2.53129e-06
7.64821e-06
-2.76897e-05
-4.76672e-09
7.58348e-06
-3.14232e-09
1.50209e-05
-5.79256e-07
3.32377e-11
-9.48975e-05
9.48265e-05
1.17012e-10
-1.40517e-10
5.82988e-07
2.83818e-05
9.48851e-05
1.80892e-09
2.8967e-05
1.20452e-06
1.66904e-11
2.83875e-05
7.18414e-11
9.48255e-05
9.10688e-12
1.02488e-07
-9.49322e-05
-2.55669e-10
9.53704e-05
5.63221e-10
2.84139e-05
2.84022e-09
-2.84167e-05
2.63861e-10
1.02655e-10
-1.00926e-07
2.85131e-05
6.07305e-10
9.49197e-05
-9.5046e-05
2.85162e-05
3.14307e-10
-9.50434e-05
2.98291e-10
9.53678e-05
1.81904e-07
-9.66091e-05
-3.81001e-10
9.73559e-05
1.12222e-09
2.90308e-05
-8.57234e-08
-2.89452e-05
5.68991e-10
2.45785e-10
-1.78908e-07
2.92055e-05
9.8526e-10
9.66033e-05
-9.64601e-05
2.92122e-05
7.56634e-10
-9.64656e-05
9.20086e-10
9.73503e-05
3.41262e-07
-9.95547e-05
-1.02706e-09
0.000100815
2.7935e-09
3.00579e-05
-2.17979e-07
-2.98406e-05
1.47129e-09
6.03522e-10
-3.34063e-07
3.03873e-05
1.47911e-09
9.95386e-05
-9.90496e-05
3.03981e-05
1.7477e-09
-9.90587e-05
2.35244e-09
0.000100808
8.06935e-07
-0.000105212
-3.55624e-09
0.000107823
6.412e-09
3.20292e-05
-5.62159e-07
-3.14684e-05
3.21573e-09
2.08172e-09
-7.98847e-07
3.28113e-05
2.96712e-09
0.000105171
-0.000103779
3.28344e-05
3.89016e-09
-0.000103798
5.3446e-09
0.000107785
8.21456e-06
-0.000121739
-1.76669e-08
0.000130609
1.21398e-08
3.96181e-05
-3.71795e-06
-3.58988e-05
5.45969e-09
1.11908e-08
-8.16037e-06
4.7678e-05
1.04347e-08
0.000121632
-0.000115343
4.78371e-05
6.66042e-09
-0.000115409
1.07416e-08
0.00013048
-0.000214944
-5.77117e-08
0.00104716
-2.46345e-08
-2.45687e-08
0.000563998
-0.00018227
4.10208e-05
1.31979e-05
1.30421e-05
-0.000112395
-0.000132905
-0.000132591
-0.000214902
0.00104733
8.97147e-07
5.93077e-06
3.13778e-10
-9.55595e-10
-1.79395e-06
-9.7088e-07
-6.20695e-10
-2.63227e-10
-8.97212e-07
4.65624e-10
-5.93115e-06
-5.72305e-10
-1.04636e-09
5.56321e-07
-1.65098e-06
-9.63528e-10
3.39532e-06
3.39125e-07
-3.39332e-07
6.11533e-10
1.64948e-06
2.76597e-10
-5.55868e-07
8.9414e-07
8.95141e-07
3.39217e-06
8.96922e-07
5.92356e-06
-1.98137e-10
-1.79157e-06
-9.7036e-07
2.76161e-06
8.44193e-11
-8.95901e-07
1.0244e-09
-5.92017e-06
8.67318e-06
8.6786e-06
1.354e-06
1.85379e-05
-2.44454e-10
-1.73918e-09
-6.55804e-06
-1.40751e-06
-1.23295e-09
-3.1128e-10
-1.35772e-06
-1.35132e-09
-1.85378e-05
-1.01337e-09
-2.08399e-09
-1.18305e-05
1.28113e-06
-1.02128e-09
1.52896e-05
-1.15518e-06
3.91634e-06
8.22043e-10
1.18218e-05
2.58142e-10
-1.27952e-06
5.19312e-06
5.19687e-06
1.5285e-05
1.3534e-06
1.85123e-05
-1.31649e-09
-6.54967e-06
-1.40699e-06
7.95533e-06
3.99662e-10
-1.35476e-06
5.24977e-11
-1.84969e-05
2.22392e-05
2.22384e-05
8.71939e-07
2.64469e-05
1.00082e-09
-3.57591e-09
-1.03702e-05
-1.05254e-06
-2.40939e-09
-1.40283e-09
-8.80018e-07
-6.8445e-09
-2.64776e-05
-2.03936e-09
-4.52699e-09
-2.36284e-05
8.50929e-07
-1.08725e-09
2.56898e-05
-6.76013e-07
8.63093e-06
2.60617e-09
2.36097e-05
4.74958e-10
-8.4683e-07
9.47338e-06
9.48055e-06
2.56794e-05
8.68029e-07
2.63767e-05
-2.64012e-09
-1.03474e-05
-1.04611e-06
1.13905e-05
8.36134e-10
-8.69327e-07
-1.88254e-09
-2.63519e-05
2.7599e-05
2.75949e-05
-1.17713e-05
-2.18862e-06
9.19837e-09
-1.06487e-08
4.1844e-06
3.65001e-05
-1.99764e-08
-1.24333e-09
1.17237e-05
-2.83159e-08
2.02055e-06
-4.70213e-09
-1.51902e-08
-2.12074e-05
-2.58766e-06
3.88781e-09
1.46731e-05
1.31076e-06
1.00792e-05
4.62622e-09
2.11544e-05
-5.24408e-10
2.6207e-06
7.44073e-06
7.48788e-06
1.46134e-05
-1.18368e-05
-2.44871e-06
-8.01583e-09
4.34829e-06
3.66665e-05
5.33845e-09
1.19108e-05
-3.53078e-09
2.57545e-06
-1.04298e-07
9.46162e-05
-4.97497e-11
1.86617e-10
-2.82831e-05
-1.33913e-07
1.71688e-10
-3.0141e-11
1.02399e-07
-2.26124e-10
-9.46118e-05
1.21993e-10
2.57479e-10
-5.79433e-07
1.10146e-10
-9.49035e-05
9.48282e-05
2.8971e-05
1.20457e-06
-1.88872e-10
5.83148e-07
2.83891e-05
9.4895e-05
1.79328e-09
2.83914e-05
9.48267e-05
-1.04408e-07
9.4618e-05
4.88765e-11
-2.8287e-05
-1.33877e-07
2.84209e-05
-9.92606e-11
1.02313e-07
-3.56765e-10
-9.46133e-05
9.50481e-05
9.50455e-05
1.60916e-07
9.56383e-05
-5.53364e-10
5.91044e-10
-2.8677e-05
-2.68662e-07
5.05381e-10
2.88324e-10
-1.6318e-07
5.28716e-11
-9.56254e-05
3.86109e-10
8.16809e-10
1.0214e-07
-9.49438e-05
1.02764e-10
9.53775e-05
2.84164e-05
4.90691e-09
-8.77485e-11
-1.00803e-07
2.85175e-05
4.72108e-10
9.49406e-05
2.85188e-05
9.53792e-05
1.60974e-07
9.56515e-05
-1.60413e-10
-2.86802e-05
-2.68562e-07
2.89489e-05
4.60408e-11
-1.63745e-07
-4.11753e-10
-9.56479e-05
9.6481e-05
9.64758e-05
2.54277e-07
9.78745e-05
-8.59731e-10
1.50107e-09
-2.9466e-05
-3.75541e-07
1.25472e-09
4.96354e-10
-2.56306e-07
4.65507e-10
-9.78606e-05
9.52051e-10
2.02028e-09
1.82049e-07
-9.66187e-05
2.99317e-10
9.73737e-05
2.90378e-05
-8.81861e-08
-2.35237e-10
-1.80568e-07
2.92204e-05
3.83317e-10
9.6617e-05
2.92204e-05
9.73796e-05
2.54379e-07
9.78957e-05
1.02819e-10
-2.94756e-05
-3.72922e-07
2.98492e-05
-1.19579e-10
-2.58037e-07
-7.44894e-10
-9.78949e-05
9.90924e-05
9.9082e-05
4.52304e-07
0.000101856
-1.76067e-09
3.53584e-09
-3.08492e-05
-6.20972e-07
2.68115e-09
1.1025e-09
-4.55768e-07
1.56367e-09
-0.000101832
2.22026e-09
4.42139e-09
3.43701e-07
-9.95831e-05
8.44319e-10
0.000100848
3.00685e-05
-2.18001e-07
-6.35454e-10
-3.42696e-07
3.04163e-05
-8.59463e-11
9.95848e-05
3.04133e-05
0.000100862
4.50433e-07
0.000101905
8.09008e-10
-3.08653e-05
-6.20903e-07
3.14877e-05
-6.06423e-10
-4.56153e-07
-1.66084e-09
-0.000101916
0.000103876
0.000103852
1.17398e-06
0.000110622
-5.22117e-09
7.81355e-09
-3.40068e-05
-1.89241e-06
4.85302e-09
3.18065e-09
-1.16624e-06
7.80815e-09
-0.000110557
4.6687e-09
8.74625e-09
8.05521e-07
-0.000105273
2.58417e-09
0.000107901
3.20528e-05
-5.63032e-07
-2.11974e-09
-8.09676e-07
3.28794e-05
-1.49232e-09
0.000105285
3.28601e-05
0.000107945
1.16978e-06
0.000110709
3.89589e-09
-3.40316e-05
-1.8953e-06
3.59271e-05
-2.95482e-09
-1.17444e-06
-5.23428e-09
-0.000110753
0.000115597
0.000115511
2.12585e-05
0.000138618
-1.84769e-08
1.2795e-08
-6.91032e-05
-4.32076e-05
3.9469e-09
2.09829e-08
-2.11967e-05
1.88415e-08
-0.000138417
1.34509e-08
-3.61435e-09
8.18479e-06
-0.000121838
1.22289e-08
0.000130707
3.96162e-05
-3.69015e-06
-1.15745e-08
-8.19778e-06
4.78714e-05
-8.67698e-09
0.000121962
4.7796e-05
0.000130922
2.11367e-05
0.000138766
2.97721e-08
-6.89162e-05
-4.34808e-05
-2.99951e-08
-2.11716e-05
-3.1742e-08
-0.000139018
)
;

boundaryField
{
    fixedWalls
    {
        type            calculated;
        value           uniform 0;
    }
    frontAndBack
    {
        type            empty;
        value           nonuniform 0();
    }
    right
    {
        type            calculated;
        value           nonuniform List<scalar> 
25
(
-3.01649e-05
-0.00627714
-0.00790287
-0.00839845
-0.0083045
-0.00799313
-0.00765957
-0.0073672
-0.00712737
-0.00693118
-0.00675139
-0.00652664
-0.00612285
-0.00529898
-0.00376252
-0.0014054
-3.01723e-05
-0.000834601
-0.000834571
-3.01705e-05
-9.52266e-05
-9.52436e-05
-9.52489e-05
-9.5228e-05
-3.01745e-05
)
;
    }
    left
    {
        type            calculated;
        value           nonuniform List<scalar> 
20
(
0.00499873
0.00499873
0.00499874
0.0049988
0.0049989
0.0049989
0.0049991
0.0049992
0.0049994
0.0049996
0.0049998
0.0050001
0.0050004
0.0050007
0.0050009
0.0050012
0.0050014
0.0050017
0.0050018
0.0050019
)
;
    }
    model
    {
        type            calculated;
        value           uniform 0;
    }
}


// ************************************************************************* //
