/*--------------------------------*- C++ -*----------------------------------*\
  =========                 |
  \\      /  F ield         | OpenFOAM: The Open Source CFD Toolbox
   \\    /   O peration     | Website:  https://openfoam.org
    \\  /    A nd           | Version:  7
     \\/     M anipulation  |
\*---------------------------------------------------------------------------*/
FoamFile
{
    version     2.0;
    format      ascii;
    class       volVectorField;
    location    "0.5";
    object      U;
}
// * * * * * * * * * * * * * * * * * * * * * * * * * * * * * * * * * * * * * //

dimensions      [0 1 -1 0 0 0 0];

internalField   nonuniform List<vector> 
733
(
(-0.000330423 0.000649636 0.0163164)
(-0.0718383 0.0319917 4.71229e-08)
(-0.118101 0.0203256 0)
(-0.129004 0.00368155 0)
(-0.102026 -0.0131247 1.15913e-23)
(-0.0464746 -0.0248316 0)
(0.0268601 -0.0299178 0)
(0.106426 -0.0305079 0)
(0.181579 -0.0275962 0)
(0.254328 -0.0262569 0)
(0.303846 -0.0196739 0)
(0.39261 -0.0364386 0)
(0.450953 0.0121216 0)
(0.275015 -0.505705 4.66644e-25)
(-0.00140387 0.0120074 0.0177234)
(-0.0861221 0.0920644 -1.02367e-09)
(-0.105962 0.0406923 -8.47298e-22)
(-0.079046 -0.0225308 1.48958e-21)
(-0.0095105 -0.0780729 -6.03042e-22)
(0.0921168 -0.116141 -4.77066e-24)
(0.211222 -0.133569 0)
(0.336063 -0.134925 0)
(0.454279 -0.123646 -4.1498e-24)
(0.574757 -0.11815 0)
(0.652671 -0.08808 0)
(0.813613 -0.167464 2.75686e-24)
(0.807961 0.0399442 -2.75684e-24)
(1.05271 -0.680822 -2.93639e-25)
(-0.000820993 0.0299923 0.0207595)
(-0.000254563 0.111008 1.32383e-08)
(0.0626254 0.0124621 -7.06512e-23)
(0.143301 -0.0931566 -5.07022e-23)
(0.237821 -0.180625 4.69471e-22)
(0.341781 -0.240267 -3.38242e-22)
(0.45039 -0.267763 6.81111e-23)
(0.559405 -0.268484 -1.19639e-22)
(0.66162 -0.247669 4.15082e-24)
(0.765028 -0.23521 1.23938e-22)
(0.83712 -0.187089 -1.23938e-22)
(0.945412 -0.274051 0)
(0.957657 -0.0780109 0)
(1.08411 -0.679345 -1.8194e-25)
(0.00156466 0.0394499 0.0286094)
(0.234107 0.000967767 -2.32335e-06)
(0.374824 -0.0948198 6.51345e-22)
(0.498108 -0.194982 2.38459e-22)
(0.598028 -0.279653 8.16155e-22)
(0.679086 -0.337407 -8.32976e-22)
(0.74824 -0.361672 1.06421e-23)
(0.80987 -0.357839 -1.53035e-22)
(0.8647 -0.32968 -2.30092e-22)
(0.919561 -0.311014 2.30083e-22)
(0.957457 -0.254451 -1.1278e-22)
(1.01304 -0.325218 1.12777e-22)
(1.00684 -0.129331 2.06478e-23)
(1.09304 -0.643135 -2.12368e-23)
(0.103526 0.000303414 0.000711111)
(0.101671 2.1852e-05 0.00368978)
(0.103778 -3.35741e-05 0.00716091)
(0.107203 -0.000149368 0.011024)
(0.113525 -0.000521187 0.0154856)
(0.132141 -0.00514374 0.0215439)
(0.423659 -0.125059 0.0329842)
(0.762353 -0.185052 -6.17351e-06)
(0.863153 -0.234245 -5.83216e-22)
(0.951251 -0.29617 -2.39027e-22)
(1.0091 -0.35252 8.24992e-23)
(1.03842 -0.389311 0)
(1.05008 -0.398787 -5.62142e-23)
(1.05289 -0.386272 -9.64223e-23)
(1.05231 -0.353155 -5.34746e-23)
(1.05507 -0.331669 2.13676e-22)
(1.05085 -0.275364 -1.25576e-22)
(1.06509 -0.330238 1.25571e-22)
(1.03166 -0.149876 -3.25192e-23)
(1.09442 -0.587696 3.34467e-23)
(1.26266 -0.00704264 -2.35256e-09)
(1.26574 -0.0100734 1.24618e-08)
(1.27394 -0.0168364 1.40167e-08)
(1.28897 -0.0294519 -7.53728e-08)
(1.31085 -0.051596 3.84041e-08)
(1.3403 -0.0972045 1.221e-06)
(1.37408 -0.168654 -3.3466e-06)
(1.36677 -0.217073 -1.81591e-06)
(1.36468 -0.262424 2.60148e-22)
(1.36093 -0.310224 0)
(1.34244 -0.350792 -3.73578e-22)
(1.30627 -0.373802 3.78937e-22)
(1.26114 -0.374072 3.27314e-24)
(1.21503 -0.358569 7.49962e-24)
(1.17358 -0.32754 -5.94145e-24)
(1.14122 -0.309568 0)
(1.10863 -0.260336 1.2186e-22)
(1.09816 -0.307026 -1.38947e-22)
(1.04591 -0.146264 5.16798e-23)
(1.09864 -0.523035 -3.63645e-23)
(1.58494 -0.0124283 6.98833e-23)
(1.58564 -0.0163037 -1.06522e-22)
(1.58886 -0.0249371 8.14492e-23)
(1.59432 -0.0405665 0)
(1.60041 -0.0655838 -2.071e-21)
(1.60438 -0.102614 4.03006e-22)
(1.60125 -0.15187 2.14917e-21)
(1.58194 -0.197058 -3.42381e-22)
(1.55191 -0.23791 -7.07291e-22)
(1.51254 -0.275492 -1.09323e-22)
(1.46179 -0.304081 2.59301e-22)
(1.40014 -0.317959 -5.65249e-24)
(1.33568 -0.315072 -3.20646e-24)
(1.27431 -0.302793 -7.50087e-24)
(1.22043 -0.279424 0)
(1.17682 -0.268745 1.30909e-22)
(1.13381 -0.229182 -3.84008e-23)
(1.114 -0.271354 9.31927e-24)
(1.05224 -0.131234 -1.18405e-22)
(1.10298 -0.455014 -1.28613e-23)
(1.6778 -0.0150943 0)
(1.67797 -0.0188977 -2.75301e-23)
(1.6782 -0.0275174 -1.47691e-22)
(1.67742 -0.0426691 0)
(1.67403 -0.0653409 0)
(1.66582 -0.0953999 1.09251e-21)
(1.6494 -0.132027 5.62523e-22)
(1.62099 -0.168303 2.16814e-22)
(1.58189 -0.200201 3.09259e-22)
(1.53365 -0.226564 -9.70901e-23)
(1.47767 -0.244865 -8.44568e-23)
(1.41509 -0.253371 2.13091e-23)
(1.35194 -0.251301 1.01397e-23)
(1.29184 -0.24437 -3.43121e-23)
(1.23798 -0.228833 4.91932e-23)
(1.19293 -0.224324 3.13421e-23)
(1.1465 -0.193255 0)
(1.12359 -0.230889 -9.15093e-23)
(1.05589 -0.111608 1.14756e-22)
(1.10816 -0.384365 2.15352e-23)
(1.65454 -0.0147092 0)
(1.65465 -0.0182728 -3.55112e-23)
(1.65335 -0.0261525 2.62639e-22)
(1.64955 -0.0392527 -3.03023e-22)
(1.64228 -0.0577816 0)
(1.63005 -0.0810171 -1.48637e-21)
(1.61092 -0.107701 -5.62028e-22)
(1.58277 -0.134264 1.57678e-22)
(1.54604 -0.157337 0)
(1.50161 -0.175536 -1.11718e-23)
(1.45162 -0.187874 -9.88368e-24)
(1.39712 -0.194194 1.0866e-23)
(1.34266 -0.193746 9.47239e-24)
(1.29006 -0.190733 3.4311e-23)
(1.24129 -0.180689 -9.84312e-23)
(1.19913 -0.179889 -3.13433e-23)
(1.15269 -0.155706 3.79069e-23)
(1.12977 -0.187852 0)
(1.05807 -0.0897405 0)
(1.11341 -0.310995 -3.00574e-23)
(1.59193 -0.0128194 0)
(1.59191 -0.0160543 6.33536e-23)
(1.58993 -0.0228881 -1.14933e-22)
(1.58515 -0.0335337 3.73771e-22)
(1.5772 -0.047843 -3.36102e-22)
(1.56507 -0.0651147 3.9331e-22)
(1.54755 -0.0842027 0)
(1.5233 -0.103023 2.28913e-22)
(1.49253 -0.119344 1.34294e-22)
(1.45565 -0.132037 1.29068e-23)
(1.4147 -0.140542 8.13793e-24)
(1.37028 -0.145198 0)
(1.32569 -0.145363 3.69e-23)
(1.28154 -0.14425 -5.63843e-23)
(1.23888 -0.13743 9.14111e-23)
(1.20092 -0.137969 0)
(1.15582 -0.118996 -3.79069e-23)
(1.13438 -0.144049 -3.72462e-24)
(1.05958 -0.06714 4.87053e-23)
(1.11883 -0.235143 3.09375e-23)
(1.52563 -0.0107017 0)
(1.52549 -0.013477 -2.78427e-23)
(1.52337 -0.019106 0)
(1.51867 -0.0274296 0)
(1.51133 -0.0381993 1.66311e-22)
(1.50068 -0.0508638 1.19574e-22)
(1.48592 -0.0644774 -2.22602e-22)
(1.46614 -0.0776293 -9.3623e-23)
(1.44155 -0.088845 1.63193e-22)
(1.41225 -0.0973387 3.94406e-23)
(1.37991 -0.102796 1.93429e-24)
(1.3446 -0.10573 -1.93425e-24)
(1.30871 -0.105604 -7.7829e-23)
(1.27215 -0.104778 -6.96964e-24)
(1.2352 -0.0993396 2.67205e-23)
(1.20163 -0.0991413 6.73059e-24)
(1.15822 -0.0839006 3.79217e-23)
(1.13894 -0.100025 2.26897e-23)
(1.06115 -0.0443446 -2.41021e-23)
(1.12495 -0.156537 -1.55915e-23)
(1.4678 -0.00876638 3.07183e-24)
(1.4676 -0.0110294 0)
(1.4656 -0.015495 -4.32896e-23)
(1.46138 -0.0218735 1.68143e-23)
(1.45505 -0.0298893 9.92523e-23)
(1.44616 -0.0390826 0)
(1.43416 -0.0486693 1.02929e-22)
(1.41841 -0.0576119 0)
(1.39916 -0.064923 -6.95075e-23)
(1.37629 -0.070132 -6.5904e-23)
(1.35112 -0.0730937 0)
(1.3233 -0.0742833 0)
(1.2946 -0.073221 7.89305e-23)
(1.26449 -0.0714644 0)
(1.23258 -0.0660216 2.74869e-23)
(1.20322 -0.0633589 -3.98219e-23)
(1.16147 -0.0506597 -7.13647e-23)
(1.14473 -0.0558771 -8.4223e-23)
(1.06353 -0.0214987 4.82673e-23)
(1.13258 -0.0744954 1.49194e-23)
(1.42051 -0.00706766 -4.1381e-24)
(1.42029 -0.00885463 -1.47277e-23)
(1.41851 -0.0123144 6.80998e-23)
(1.4149 -0.0171297 -2.59855e-23)
(1.40964 -0.0230182 5.86376e-23)
(1.4024 -0.0295768 0)
(1.39284 -0.0361577 0)
(1.38047 -0.0419774 -5.21406e-23)
(1.36556 -0.0463627 -1.62711e-23)
(1.34788 -0.0490425 5.55816e-23)
(1.3285 -0.0499506 1.58866e-24)
(1.30677 -0.0494083 -4.74188e-24)
(1.28398 -0.0470063 -4.25896e-23)
(1.25944 -0.04348 7.41221e-24)
(1.23202 -0.0370746 -1.16999e-23)
(1.20679 -0.0304952 5.47805e-23)
(1.16666 -0.0194011 0)
(1.15283 -0.011479 4.06523e-23)
(1.06745 0.00143012 -4.82656e-23)
(1.14278 0.0124091 -1.49189e-23)
(1.38179 -0.00560046 2.43117e-24)
(1.38157 -0.00698446 1.88915e-23)
(1.38003 -0.00962021 -5.82576e-23)
(1.37703 -0.0131996 1.37913e-23)
(1.37274 -0.0174502 -4.64397e-23)
(1.36696 -0.0220164 0)
(1.35945 -0.0263645 -2.4781e-23)
(1.34983 -0.0298932 9.74175e-23)
(1.33842 -0.0321262 -2.05035e-23)
(1.32492 -0.0328916 -1.054e-23)
(1.31023 -0.0321392 -1.49598e-24)
(1.29353 -0.0299764 0)
(1.27578 -0.026086 -2.70376e-23)
(1.25628 -0.0203052 8.11471e-24)
(1.23313 -0.0123759 -3.4835e-23)
(1.21228 -0.000620203 2.11608e-24)
(1.17396 0.00959881 -2.17819e-23)
(1.16386 0.0336693 0)
(1.07361 0.0247451 0)
(1.15683 0.107238 0)
(1.3463 -0.00433893 8.03353e-25)
(1.34608 -0.00539932 -9.83431e-24)
(1.34477 -0.00738459 3.02349e-23)
(1.3423 -0.0100051 -9.91533e-24)
(1.33886 -0.0130058 9.9173e-24)
(1.33428 -0.0160784 0)
(1.32843 -0.0187846 -2.09827e-23)
(1.32102 -0.0206634 -1.96749e-23)
(1.31242 -0.021364 0)
(1.3023 -0.0207525 -8.81207e-24)
(1.29147 -0.0187491 -8.82838e-24)
(1.27908 -0.0152208 -2.17333e-25)
(1.2658 -0.00994841 1.58221e-23)
(1.25124 -0.0017634 -7.4035e-24)
(1.23253 0.00780453 2.8045e-24)
(1.21707 0.0256302 -2.80458e-24)
(1.18149 0.0352989 2.17799e-23)
(1.17711 0.0793414 -1.93512e-23)
(1.08188 0.0478877 0)
(1.17583 0.213848 0)
(1.30175 -0.00325007 -8.01624e-25)
(1.30152 -0.00406038 1.88267e-24)
(1.3004 -0.00554494 -1.67689e-23)
(1.29836 -0.00742836 -7.25461e-24)
(1.29558 -0.0094789 -7.56496e-24)
(1.29193 -0.0114406 -9.31849e-24)
(1.28736 -0.0129632 2.09809e-23)
(1.28169 -0.0137039 1.05972e-23)
(1.2753 -0.0133946 -8.93715e-24)
(1.26793 -0.011909 1.27688e-23)
(1.2603 -0.00911076 3.4277e-24)
(1.25176 -0.00462867 -1.30328e-24)
(1.24264 0.00162436 3.09762e-24)
(1.23338 0.0117392 1.05544e-23)
(1.2195 0.0225074 -6.78195e-25)
(1.21175 0.0464697 0)
(1.18069 0.0551391 -1.3188e-24)
(1.18699 0.123046 2.44061e-23)
(1.08902 0.0673528 0)
(1.19938 0.335149 0)
(1.22136 -0.00230231 0)
(1.2211 -0.00292082 0)
(1.22007 -0.00401303 5.71257e-24)
(1.21833 -0.0053164 1.09239e-23)
(1.21599 -0.0066356 1.39398e-23)
(1.21299 -0.00777672 -8.38835e-24)
(1.20934 -0.00847902 1.88213e-23)
(1.20498 -0.00850449 -9.48721e-24)
(1.20029 -0.0076455 1.80123e-23)
(1.19516 -0.00577096 0)
(1.19021 -0.00269014 9.82677e-24)
(1.18522 0.00207682 -4.57407e-24)
(1.17997 0.00851018 1.39182e-23)
(1.17679 0.0193443 -1.66405e-23)
(1.16845 0.0302177 6.09229e-24)
(1.17265 0.0584799 7.19196e-24)
(1.14807 0.064887 2.70869e-24)
(1.17617 0.158356 -6.44563e-24)
(1.08131 0.0752816 6.07101e-24)
(1.22188 0.465987 -5.62398e-25)
(1.05713 -0.00147564 -1.33709e-25)
(1.05679 -0.00193065 0)
(1.05577 -0.00267704 -4.29654e-25)
(1.05416 -0.00348394 2.7029e-24)
(1.05208 -0.00421705 7.65797e-24)
(1.04949 -0.00475565 0)
(1.04647 -0.00493134 -4.54132e-24)
(1.0431 -0.00459894 -1.48654e-23)
(1.03975 -0.00360548 0)
(1.0365 -0.00183064 -1.13445e-23)
(1.03382 0.000911541 -1.56405e-23)
(1.03204 0.00507626 9.35762e-24)
(1.03072 0.0106072 -7.6062e-24)
(1.03409 0.0202454 5.68618e-24)
(1.03228 0.0294932 4.89351e-24)
(1.05282 0.056743 -2.12312e-23)
(1.036 0.0594247 -2.0536e-24)
(1.10555 0.169061 -1.00053e-23)
(1.01901 0.0621632 -5.52398e-24)
(1.21286 0.58843 0)
(0.750637 -0.000771931 1.317e-25)
(0.750165 -0.00104286 8.9955e-25)
(0.749105 -0.00142158 -3.17249e-24)
(0.747605 -0.00176288 0)
(0.745753 -0.002019 3.88232e-24)
(0.743566 -0.00214297 3.32377e-25)
(0.74119 -0.00205112 -4.90023e-24)
(0.738781 -0.00166889 2.01603e-23)
(0.736665 -0.000906784 5.6141e-24)
(0.735076 0.000303225 1.13433e-23)
(0.734465 0.00209095 -6.64468e-24)
(0.735429 0.0047624 2.35539e-25)
(0.73805 0.00829211 -3.96156e-24)
(0.746083 0.0144001 8.9522e-24)
(0.752309 0.020218 -1.51816e-23)
(0.784383 0.0383544 1.51847e-23)
(0.779372 0.0363245 2.6139e-24)
(0.905042 0.131447 1.20587e-23)
(0.824139 -0.0295261 0)
(1.14111 0.662444 0)
(0.280312 -0.000232945 0)
(0.279831 -0.000316329 0)
(0.279063 -0.00039856 0)
(0.278117 -0.000445514 0)
(0.277025 -0.000460974 0)
(0.275842 -0.000435597 -4.13853e-24)
(0.274661 -0.000342864 0)
(0.27363 -0.000158877 -3.75e-24)
(0.272964 0.000140893 -6.85642e-24)
(0.272884 0.000571423 3.17425e-24)
(0.27371 0.00118791 5.11172e-24)
(0.275873 0.00208046 1.89479e-24)
(0.279778 0.00326228 0)
(0.286935 0.00521541 0)
(0.296145 0.00727423 0)
(0.316966 0.0126044 -2.61923e-24)
(0.327567 0.0134635 6.02189e-24)
(0.397256 0.0352433 -3.40264e-24)
(0.436498 -0.00259929 0)
(0.307051 0.514805 0)
(-0.0145442 0.0138039 0.018876)
(-0.00119366 0.00791209 0.017596)
(-0.0236995 0.0367349 0.0201954)
(-0.000329755 0.000648181 -0.0163129)
(-0.0145235 0.0137905 -0.018876)
(-0.00119111 0.0078941 -0.0175917)
(-0.0236629 0.0366865 -0.0201952)
(-0.0285223 0.0708639 0.0205844)
(-0.00188128 0.026112 0.0194174)
(-0.0307378 0.103389 0.0215647)
(-0.00140125 0.0119798 -0.0177177)
(-0.0284702 0.0707644 -0.0205842)
(-0.00187641 0.0260496 -0.0194071)
(-0.0306594 0.103216 -0.0215642)
(-0.0148219 0.125413 0.0241797)
(-0.00185507 0.0398442 0.0253715)
(-0.00789384 0.1325 0.0256972)
(-0.000815407 0.0299097 -0.0207461)
(-0.0146935 0.125128 -0.0241796)
(-0.00182815 0.0396517 -0.0253456)
(-0.00763724 0.132066 -0.0256969)
(0.0521949 0.0852839 0.0300628)
(0.0925228 -0.0260487 0.0439661)
(0.164538 -0.000252582 0.0297357)
(0.00162915 0.0391608 -0.0285733)
(0.0527666 0.084557 -0.0300613)
(0.0945784 -0.0273215 -0.043724)
(0.165614 -0.000993575 -0.0297434)
(0.101317 -0.000287776 0.00279957)
(0.6678 0.00118818 0.00109106)
(0.669096 -0.00352388 0.00268845)
(0.103543 0.000303328 -0.000711337)
(0.101336 -0.000288413 -0.00280121)
(0.66783 0.0011869 -0.00109105)
(0.669129 -0.00352749 -0.00268845)
(0.103128 -0.000397773 0.00618098)
(0.67105 -0.00108435 0.00461364)
(0.675292 -0.00558053 0.00646377)
(0.101688 1.97027e-05 -0.00369226)
(0.103147 -0.000398676 -0.00618557)
(0.671089 -0.00109304 -0.0046136)
(0.675348 -0.00559855 -0.00646376)
(0.106107 -0.000515158 0.00993556)
(0.680257 -0.00318934 0.00862693)
(0.687244 -0.0085458 0.0106899)
(0.103807 -3.3708e-05 -0.00716624)
(0.10616 -0.000518446 -0.00994739)
(0.680338 -0.00321473 -0.00862695)
(0.687363 -0.00859063 -0.0106897)
(0.111376 -0.00080525 0.0142197)
(0.696393 -0.00718278 0.0131349)
(0.708488 -0.0144334 0.015553)
(0.107263 -0.000152574 -0.0110377)
(0.111503 -0.000815856 -0.0142454)
(0.696567 -0.00725152 -0.0131348)
(0.708757 -0.0145478 -0.0155531)
(0.123782 -0.00265158 0.0196763)
(0.725492 -0.0166124 0.0185032)
(0.746913 -0.0299401 0.0216183)
(0.113685 -0.000535939 -0.0155182)
(0.124146 -0.00272808 -0.0197355)
(0.725903 -0.0168005 -0.0185025)
(0.747487 -0.030272 -0.0216167)
(0.222874 -0.0653176 0.044413)
(0.780346 -0.0508738 0.0251473)
(0.821562 -0.0961366 0.0282685)
(0.132645 -0.00529524 -0.0216261)
(0.224012 -0.0668426 -0.0444567)
(0.780966 -0.0516 -0.0251454)
(0.821887 -0.0975444 -0.028255)
(-0.00369662 0.00728847 -1.13862e-06)
(-0.00227019 0.00325955 0.0204764)
(-0.000667593 0.00196134 0.0178308)
(-0.000326972 0.00064815 -1.73644e-06)
(-0.000660019 0.00195645 -2.05784e-06)
(-0.00226701 0.00325964 -1.67002e-06)
(-0.00370484 0.00729724 0.0233244)
(-0.00774584 0.0424632 -3.56302e-06)
(-0.0013943 0.012002 -3.04635e-06)
(-0.0068548 0.0335391 0.0234725)
(-0.00165824 0.0161418 0.0180381)
(-0.00684155 0.0335334 -3.04366e-06)
(-0.00164658 0.0161361 -3.89214e-06)
(-0.0077638 0.0424756 0.023872)
(-0.00523906 0.0789083 -1.33316e-05)
(-0.000804601 0.0299763 -5.51521e-06)
(-0.00418469 0.0743616 0.0274771)
(-0.00125704 0.0324555 0.021996)
(-0.0041593 0.0743324 -5.07471e-06)
(-0.00124231 0.0324149 -1.00429e-05)
(-0.00527592 0.0789878 0.0287988)
(0.0177324 0.0624921 -6.34647e-05)
(0.0015847 0.0393536 -1.5506e-05)
(0.00868191 0.0791741 0.0364579)
(0.00539744 0.033846 0.0319756)
(0.00876283 0.0789372 -2.20147e-05)
(0.00540162 0.0337251 -2.88745e-05)
(0.0176072 0.0628078 0.0385299)
(0.302945 -0.000386733 2.3928e-07)
(0.101554 -1.83507e-05 0.00137755)
(0.305343 0.00098083 0.0010033)
(0.103548 0.000302647 3.77947e-06)
(0.101554 -1.70354e-05 -2.56921e-07)
(0.302946 -0.000385806 0.00178629)
(0.305385 0.000967991 5.70606e-06)
(0.304157 -0.000921483 2.42339e-06)
(0.101683 2.24069e-05 2.05606e-06)
(0.101826 -0.00018619 0.00450676)
(0.303652 5.39888e-05 0.00487259)
(0.101834 -0.000185511 1.39717e-06)
(0.303676 5.10502e-05 2.74695e-06)
(0.304146 -0.000919514 0.00588073)
(0.310041 -0.00137438 4.42002e-06)
(0.10379 -3.19499e-05 3.49353e-06)
(0.104175 -0.000276498 0.00806805)
(0.308879 -0.000274143 0.00942662)
(0.104189 -0.000277242 3.35954e-06)
(0.308904 -0.000278874 5.73439e-06)
(0.310023 -0.00136868 0.0105347)
(0.320074 -0.00236425 1.12492e-05)
(0.107221 -0.00015035 7.8626e-06)
(0.10808 -0.000466087 0.0120538)
(0.317739 -0.000977003 0.014518)
(0.108104 -0.000468194 7.89884e-06)
(0.317778 -0.000990382 1.13975e-05)
(0.320039 -0.00235027 0.0157765)
(0.339506 -0.0052077 2.97958e-05)
(0.113572 -0.000527241 1.72262e-05)
(0.115718 -0.00104659 0.0167526)
(0.334078 -0.00294799 0.0204855)
(0.115788 -0.0010543 2.03742e-05)
(0.334175 -0.00298379 2.47471e-05)
(0.339392 -0.00516212 0.0220878)
(0.395071 -0.0318186 9.54478e-05)
(0.132354 -0.00520191 4.40381e-05)
(0.148682 -0.0124291 0.0240934)
(0.374353 -0.0171394 0.0288027)
(0.149054 -0.0125809 6.52945e-05)
(0.374673 -0.017328 6.63879e-05)
(0.394705 -0.0314526 0.0315319)
(0.484692 -0.129538 0.0318659)
(0.843507 -0.161092 0.0297638)
(0.863902 -0.192763 0.0280176)
(0.42231 -0.125098 -0.033352)
(0.484486 -0.129374 -0.031974)
(0.843203 -0.161456 -0.0298605)
(0.86385 -0.192657 -0.0280327)
(-0.0052721 0.0151584 -3.71624e-06)
(-0.00118455 0.0079133 -2.3534e-06)
(-0.00105362 0.00473645 0.0175802)
(-0.00600573 0.0222257 0.0232742)
(-0.00104847 0.00473518 -2.80873e-06)
(-0.00599406 0.0222278 -1.5357e-06)
(-0.00528128 0.015161 0.0231291)
(-0.00369621 0.00727995 -5.70391e-06)
(-0.000327673 0.000647165 -2.74299e-06)
(-0.00226543 0.00325481 -0.0204699)
(-0.000666176 0.00195636 -0.0178264)
(-0.000660755 0.00195334 -2.80735e-06)
(-0.00226713 0.00325611 -4.26664e-06)
(-0.00369669 0.00728378 -0.0233174)
(-0.00526988 0.0151395 -3.35501e-06)
(-0.00118489 0.0079023 -3.08566e-06)
(-0.00105141 0.00472525 -0.0175756)
(-0.00599214 0.0221824 -0.0232657)
(-0.0010488 0.00472858 -2.17481e-06)
(-0.00599108 0.0222003 -6.20813e-06)
(-0.00527001 0.0151332 -0.0231219)
(-0.00789344 0.0550691 -4.2399e-06)
(-0.00187059 0.0261067 -7.68921e-06)
(-0.00171965 0.0211946 0.0185855)
(-0.00841892 0.0650542 0.0255216)
(-0.00170659 0.0211789 -4.44952e-06)
(-0.00839274 0.0650392 -1.02212e-05)
(-0.00791346 0.0550973 0.0246189)
(-0.00774218 0.0424096 -7.31937e-06)
(-0.00139507 0.0119862 -3.25725e-06)
(-0.00684021 0.033475 -0.0234627)
(-0.00165489 0.0161057 -0.018031)
(-0.00683901 0.0334907 -6.0902e-06)
(-0.00164716 0.0161151 -3.72768e-06)
(-0.00774497 0.0423904 -0.0238611)
(-0.00789093 0.054995 -9.12162e-06)
(-0.00187181 0.0260723 -3.74367e-06)
(-0.00171601 0.0211458 -0.0185773)
(-0.0083905 0.0649063 -0.0255053)
(-0.00170779 0.0211516 -4.75873e-06)
(-0.0083884 0.0649492 -6.1423e-06)
(-0.00789249 0.0549822 -0.0246052)
(-0.0048518 0.0841227 -1.35732e-05)
(-0.00184743 0.0397846 -2.09388e-05)
(-0.00146775 0.0357115 0.0234908)
(-0.00494507 0.0889202 0.0323243)
(-0.0014463 0.03564 -1.18551e-05)
(-0.00487687 0.0887812 -3.47916e-05)
(-0.00490302 0.0842618 0.0306314)
(-0.00523176 0.0787628 -1.21727e-05)
(-0.000806483 0.0299331 -8.65973e-06)
(-0.00415102 0.0741646 -0.027456)
(-0.00124846 0.0323497 -0.0219791)
(-0.00415671 0.0742112 -1.53806e-05)
(-0.0012437 0.0323612 -7.61427e-06)
(-0.00522606 0.0787346 -0.0287728)
(-0.00483798 0.0839272 -1.87691e-05)
(-0.00184304 0.0396942 -6.10249e-06)
(-0.00145465 0.0355667 -0.0234698)
(-0.0048173 0.0884652 -0.0322793)
(-0.00144677 0.0355701 -9.84649e-06)
(-0.00484105 0.0885391 -7.29225e-06)
(-0.00482878 0.0839195 -0.0305974)
(0.0543611 0.0215104 -6.86577e-05)
(0.093112 -0.0263979 -0.000108159)
(0.0265196 0.0133891 0.0371775)
(0.126369 -0.0232823 0.0438204)
(0.0266665 0.013147 -2.16956e-05)
(0.126962 -0.0236745 -0.000163588)
(0.0541061 0.0219477 0.0425287)
(0.0179081 0.0619657 -7.66748e-06)
(0.00160702 0.0392179 -1.59615e-05)
(0.00892668 0.0784893 -0.0363961)
(0.00556623 0.0333376 -0.0319144)
(0.00885643 0.0785762 -2.86469e-05)
(0.00545806 0.0334858 -9.03034e-06)
(0.0180717 0.0617612 -0.0384319)
(0.0546936 0.0208233 -6.52344e-05)
(0.0937099 -0.0269992 -9.97586e-05)
(0.0270909 0.0124056 -0.0369922)
(0.128371 -0.0246368 -0.0435935)
(0.0268218 0.0126983 -3.63574e-05)
(0.127525 -0.0243742 -4.63746e-05)
(0.0550922 0.0205406 -0.0423416)
(0.302206 -0.000263013 6.86211e-07)
(0.101333 -0.000287643 9.98085e-08)
(0.100922 -2.53212e-05 0.00204706)
(0.302847 -0.00131897 0.00363065)
(0.100928 -2.42538e-05 2.9205e-07)
(0.302867 -0.00131808 2.3168e-08)
(0.302196 -0.000263911 0.00271991)
(0.302963 -0.000386234 6.81139e-07)
(0.103557 0.000302738 -3.61185e-06)
(0.101571 -1.82603e-05 -0.00137829)
(0.305374 0.000981305 -0.00100343)
(0.101563 -1.68162e-05 8.95082e-07)
(0.302975 -0.000386133 -0.00178722)
(0.305403 0.000968831 -5.60912e-06)
(0.302223 -0.000261922 6.86022e-07)
(0.101343 -0.000287573 1.33726e-06)
(0.100939 -2.54341e-05 -0.00204825)
(0.302876 -0.0013206 -0.00363253)
(0.100938 -2.39425e-05 7.49439e-07)
(0.302885 -0.00131747 1.85466e-06)
(0.302224 -0.000264246 -0.00272128)
(0.305517 -0.000689747 3.42678e-06)
(0.103138 -0.000397601 1.69868e-06)
(0.102329 -0.000135917 0.00533068)
(0.307151 -0.00182729 0.00805131)
(0.102333 -0.000135509 2.28981e-06)
(0.30717 -0.0018293 2.50919e-06)
(0.305502 -0.000686203 0.00701731)
(0.30418 -0.000920364 1.93476e-06)
(0.101692 2.19182e-05 2.3516e-07)
(0.101842 -0.000185683 -0.00450961)
(0.30369 5.08286e-05 -0.00487481)
(0.101843 -0.00018463 1.34294e-06)
(0.303698 5.16835e-05 -6.3217e-07)
(0.304182 -0.000922101 -0.00588531)
(0.305543 -0.000689155 1.18888e-06)
(0.103149 -0.000396984 2.73838e-06)
(0.102345 -0.000136331 -0.00533418)
(0.307198 -0.00183417 -0.00805795)
(0.102343 -0.000135017 1.10763e-06)
(0.3072 -0.00182948 3.63118e-06)
(0.305546 -0.000690592 -0.00702219)
(0.312332 -0.00117148 6.9856e-06)
(0.106126 -0.000516624 5.12109e-06)
(0.104987 -0.000213442 0.0089837)
(0.314727 -0.00250516 0.0129816)
(0.104999 -0.000214374 4.88608e-06)
(0.31476 -0.00251342 7.2538e-06)
(0.312304 -0.00116307 0.0118155)
(0.310091 -0.00137357 4.15039e-06)
(0.103808 -3.08612e-05 1.47265e-06)
(0.104216 -0.000278889 -0.00807543)
(0.308941 -0.000279143 -0.00943424)
(0.104212 -0.000276818 3.32346e-06)
(0.308941 -0.000276475 1.43179e-06)
(0.310102 -0.00137859 -0.0105436)
(0.312395 -0.00116936 4.6211e-06)
(0.106155 -0.000515202 6.05798e-06)
(0.105035 -0.000215414 -0.00899298)
(0.31484 -0.00252369 -0.0129979)
(0.105027 -0.000213145 3.55963e-06)
(0.31483 -0.00251343 8.12251e-06)
(0.312409 -0.00117468 -0.0118277)
(0.324183 -0.00231271 1.57041e-05)
(0.111417 -0.000809228 1.20487e-05)
(0.109543 -0.000410983 0.0131055)
(0.328229 -0.0040719 0.0186691)
(0.109568 -0.000414544 1.12313e-05)
(0.328298 -0.00409453 1.76049e-05)
(0.324131 -0.00229202 0.0172763)
(0.320176 -0.00236334 1.06521e-05)
(0.107255 -0.000148304 5.40574e-06)
(0.108161 -0.000471302 -0.0120705)
(0.317875 -0.000996604 -0.0145375)
(0.108147 -0.000466173 8.00887e-06)
(0.317861 -0.000987384 7.01496e-06)
(0.320206 -0.00237835 -0.0157991)
(0.324315 -0.00231111 1.26709e-05)
(0.11148 -0.000806047 1.3273e-05)
(0.109644 -0.000418487 -0.0131272)
(0.328499 -0.00412609 -0.018706)
(0.109623 -0.000412106 9.47498e-06)
(0.328453 -0.00409664 1.7899e-05)
(0.324354 -0.00232962 -0.0173058)
(0.34833 -0.00645651 3.93932e-05)
(0.123917 -0.00267249 3.26024e-05)
(0.119119 -0.00130105 0.0181117)
(0.357815 -0.0110339 0.0262212)
(0.11921 -0.00131427 2.70051e-05)
(0.358033 -0.0111377 5.05934e-05)
(0.348159 -0.00638739 0.0241187)
(0.33973 -0.00521498 2.65775e-05)
(0.113648 -0.000522793 1.46448e-05)
(0.115941 -0.00107332 -0.0167939)
(0.334429 -0.00301863 -0.020531)
(0.115881 -0.00105132 2.04284e-05)
(0.334368 -0.0029824 2.00788e-05)
(0.339832 -0.00527359 -0.0221451)
(0.348597 -0.00646784 3.5033e-05)
(0.12403 -0.00267342 3.30982e-05)
(0.119389 -0.00134293 -0.0181638)
(0.358533 -0.011307 -0.0263052)
(0.119307 -0.00131154 2.61143e-05)
(0.35834 -0.0111713 4.22101e-05)
(0.348726 -0.00655297 -0.0241932)
(0.430666 -0.0608755 0.00010353)
(0.223429 -0.066516 0.000219159)
(0.186196 -0.0313908 0.0285524)
(0.457909 -0.102267 0.0401526)
(0.186966 -0.0319122 0.000125886)
(0.458321 -0.103907 3.6824e-05)
(0.430251 -0.060054 0.0341274)
(0.395332 -0.0320623 7.80484e-05)
(0.132454 -0.00521678 4.28256e-05)
(0.149459 -0.0127905 -0.0242036)
(0.37528 -0.0176394 -0.0289267)
(0.149132 -0.0126415 6.54692e-05)
(0.374995 -0.0174331 6.00795e-05)
(0.395828 -0.0324271 -0.0316851)
(0.430625 -0.0614988 0.000136834)
(0.223756 -0.0669242 2.47256e-05)
(0.18681 -0.0322982 -0.0287607)
(0.458432 -0.104748 -0.0401141)
(0.186759 -0.0320995 0.000154514)
(0.458314 -0.10457 7.82082e-05)
(0.431045 -0.0620961 -0.034321)
)
;

boundaryField
{
    fixedWalls
    {
        type            noSlip;
    }
    frontAndBack
    {
        type            empty;
    }
    right
    {
        type            zeroGradient;
    }
    left
    {
        type            fixedValue;
        value           uniform (1 0 0);
    }
    model
    {
        type            noSlip;
    }
}


// ************************************************************************* //
