/*--------------------------------*- C++ -*----------------------------------*\
  =========                 |
  \\      /  F ield         | OpenFOAM: The Open Source CFD Toolbox
   \\    /   O peration     | Website:  https://openfoam.org
    \\  /    A nd           | Version:  7
     \\/     M anipulation  |
\*---------------------------------------------------------------------------*/
FoamFile
{
    version     2.0;
    format      ascii;
    class       volScalarField;
    location    "1";
    object      p;
}
// * * * * * * * * * * * * * * * * * * * * * * * * * * * * * * * * * * * * * //

dimensions      [0 2 -2 0 0 0 0];

internalField   nonuniform List<scalar> 
1161
(
0.0412103
-0.0333006
-0.159128
-0.311088
-0.509062
-0.779469
-1.15208
-1.65801
-2.32621
-3.17844
-4.20062
-5.27216
-6.23044
-6.98903
-7.55805
-7.99692
-8.38379
-8.83766
-9.77262
-12.2408
0.0154054
-0.0933422
-0.244521
-0.419823
-0.643644
-0.940701
-1.33652
-1.85612
-2.51904
-3.33968
-4.31068
-5.30841
-6.18291
-6.8788
-7.43019
-7.89083
-8.31107
-8.73114
-9.27029
-10.0636
0.00321202
-0.115763
-0.270361
-0.446384
-0.670566
-0.968464
-1.36651
-1.89134
-2.56755
-3.42833
-4.48874
-5.53901
-6.37359
-6.96686
-7.42252
-7.81122
-8.1552
-8.47371
-8.75334
-8.93271
-0.00912746
-0.119408
-0.257646
-0.417241
-0.624403
-0.905636
-1.28948
-1.80492
-2.48932
-3.42643
-4.76916
-6.01153
-6.82414
-7.23198
-7.51776
-7.78284
-8.02932
-8.24594
-8.39495
-8.39321
-0.0243327
-0.111184
-0.215074
-0.343129
-0.518036
-0.765019
-1.11159
-1.57462
-2.15307
-2.91511
-4.26419
-6.28265
-7.70228
-7.69033
-7.72225
-7.82837
-7.96968
-8.10994
-8.20422
-8.18627
-0.0407667
-0.0921424
-0.146433
-0.228899
-0.356158
-0.550129
-0.839063
-1.22881
-1.49196
-2.08211
-2.67699
-8.78671
-8.23391
-7.9586
-7.91161
-7.96131
-8.04781
-8.12716
-8.16174
-0.0582132
-0.064697
-0.058701
-0.0836
-0.146391
-0.262649
-0.478878
-0.854876
-1.19725
-1.40702
-9.08348
-8.36549
-8.0633
-7.9609
-7.95758
-8.01011
-8.09202
-8.19083
-0.0757285
-0.0329656
0.0375393
0.077869
0.0976234
0.110562
-0.154639
-0.395204
-0.846187
-9.03157
-8.34511
-8.08805
-7.97241
-7.93977
-7.96877
-8.05015
-8.19028
-0.0912872
-0.00266496
0.127782
0.231303
0.326913
0.427144
0.40493
0.029454
-8.9151
-8.32916
-8.08151
-7.95529
-7.90217
-7.90859
-7.9756
-8.11822
-0.101755
0.0208319
0.196003
0.352725
0.557924
0.688626
0.779622
-8.74605
-8.29251
-8.04048
-7.90587
-7.83779
-7.8207
-7.8577
-7.96207
-0.104741
0.0259828
0.218808
0.402816
0.682658
1.03088
1.20329
-8.26321
-8.09803
-7.93238
-7.81512
-7.7415
-7.70285
-7.69864
-7.73226
-0.100811
-0.0034207
0.156295
0.317698
0.628728
1.26757
1.7208
-7.9895
-8.04357
-8.0101
-7.90748
-7.79298
-7.69753
-7.62372
-7.56612
-7.51584
-7.45995
-0.0962297
-0.0916704
-0.0557054
-0.0453292
0.0633439
1.07255
-8.76293
-8.06233
-7.84739
-7.81527
-7.78547
-7.72304
-7.64659
-7.57391
-7.50549
-7.43511
-7.34262
-7.19392
-0.0960392
-0.234453
-0.412076
-0.713251
-1.25564
-1.68605
-4.57581
-8.39193
-7.77826
-7.53995
-7.53125
-7.54932
-7.5579
-7.54177
-7.51
-7.46964
-7.41775
-7.34659
-7.2254
-6.99798
-0.0948816
-0.371092
-0.745545
-1.2977
-2.22841
-3.77127
-5.57944
-6.56145
-6.8899
-7.03546
-7.1565
-7.25989
-7.33599
-7.3844
-7.41064
-7.41628
-7.3965
-7.34256
-7.21637
-6.94382
-0.0861814
-0.457543
-0.947372
-1.56056
-2.401
-3.5319
-4.79116
-5.69747
-6.21376
-6.54592
-6.79588
-6.99684
-7.15631
-7.28024
-7.37383
-7.43779
-7.46764
-7.45509
-7.35955
-7.09251
-0.0727261
-0.494337
-1.03667
-1.64616
-2.38205
-3.28255
-4.26125
-5.08908
-5.69632
-6.15139
-6.51284
-6.80727
-7.04771
-7.24431
-7.40501
-7.5337
-7.62966
-7.6899
-7.68003
-7.51461
-0.0596292
-0.496973
-1.05486
-1.65416
-2.33341
-3.11228
-3.94463
-4.71794
-5.37073
-5.90773
-6.35057
-6.71596
-7.01771
-7.26927
-7.48358
-7.67219
-7.84503
-8.00995
-8.16384
-8.25852
-0.0418941
-0.462468
-1.01006
-1.60072
-2.25954
-2.99734
-3.78509
-4.55175
-5.24232
-5.83505
-6.3301
-6.73718
-7.07027
-7.34565
-7.58162
-7.80041
-8.02977
-8.30605
-8.74515
-9.50515
0.0086911
-0.354959
-0.871762
-1.4548
-2.12081
-2.88111
-3.70889
-4.53761
-5.29477
-5.94346
-6.47541
-6.89907
-7.2306
-7.48879
-7.69463
-7.87574
-8.07584
-8.3903
-9.22547
-11.6657
-5.53052
-3.31827
-6.88132
-4.26394
-5.53332
-3.31689
-6.91105
-7.05039
-7.58623
-8.31221
-6.28505
-7.05204
-7.58944
-8.3142
-2.23888
-1.30643
-2.08065
-2.23577
-1.30501
-5.8419
-2.66985
-5.90499
-9.00226
-9.90147
-9.00263
-9.89192
-8.46335
-9.05224
-8.85405
-8.78689
-8.46344
-9.05194
-8.8542
-1.35662
-0.593284
-1.19704
-1.35723
-0.592085
-1.40663
-9.7187
-9.72163
-8.81795
-9.13915
-8.88736
-9.08645
-8.81837
-9.13954
-8.88775
-0.887244
0.213059
-0.39515
-0.886997
0.212851
-0.845844
-8.76657
-8.91599
-8.74883
-9.03183
-8.76688
-8.91546
-8.74901
0.0186205
0.690241
0.942767
0.404823
0.0180085
0.690402
0.945714
0.0291685
-8.72362
-8.79514
-8.65767
-8.91462
-8.72368
-8.79409
-8.65759
1.09963
0.77967
1.09871
-8.69891
-8.6982
-8.7174
-8.4014
-8.43225
-8.74652
-8.71769
-8.40147
-8.43248
1.14982
1.10748
1.31272
1.03117
1.15026
1.10789
1.31332
1.57752
1.20185
1.57822
-7.30961
-7.96549
-7.30667
-7.96644
-8.62911
-7.92135
-8.15665
-8.62909
-7.92165
-8.15677
1.62402
1.15518
2.34481
1.26802
1.62499
1.15573
2.3452
1.72147
-8.17015
-8.17116
-8.8464
-7.93996
-8.00479
-8.84633
-7.94053
-8.00496
-8.21069
-7.77143
-7.89721
-7.98909
-8.21076
-7.77136
-7.89723
2.76536
-0.143039
-1.18289
1.07356
2.76655
-0.142745
-1.19715
-9.79074
-9.79101
-8.38746
-9.34492
-8.73831
-8.38757
-9.3472
-8.73882
-8.26001
-8.07148
-8.04455
-8.76252
-8.25989
-8.07157
-8.0446
-8.02844
-5.80395
-7.03906
-4.58244
-8.02748
-5.80347
-7.03901
-2.32901
-2.68077
-3.30643
-1.83373
-3.33611
-1.8143
-2.31213
-8.91537
-8.91035
-1.0177
-0.509856
-0.725817
-0.85478
-1.01752
-0.509735
-0.725512
-1.41016
-2.132
-0.598608
-2.14144
-0.590813
-9.13912
-9.08074
-9.00802
-9.13221
-9.00873
-9.13393
-9.13416
-0.289705
0.174549
0.0299296
-0.154673
-0.289729
0.174476
0.0297971
-0.850758
-8.93143
-9.03109
-8.94264
-8.98474
-8.94145
-8.98486
-8.93101
0.0226193
0.670038
0.676488
-8.84288
-8.91452
-8.86033
-8.91493
-8.85999
-8.91417
-8.84375
0.742634
0.880404
0.95474
0.688664
0.742673
0.880512
0.954782
1.01542
0.778064
0.682818
0.983758
0.675688
0.987245
1.01311
-8.71638
-8.74618
-8.82674
-8.69812
-8.83028
-8.69769
-8.71406
1.45497
1.20197
1.20013
1.42293
1.19658
1.4267
1.45117
-8.05632
-8.56847
-7.90328
-8.56849
-7.9017
-8.06355
1.72113
1.83079
1.8291
-8.23148
-7.91725
-7.90925
-8.22802
-8.93846
-8.94781
-8.17457
-8.76798
-8.54862
-8.29276
-8.55031
-8.28749
-8.1843
-8.20892
-7.86263
-7.82147
-8.06244
-8.20905
-7.86268
-7.82153
-3.51566
-2.89423
-4.29915
-1.68615
-3.51662
-2.89434
-4.2992
-7.05965
-4.51622
-9.98863
-5.75826
-10.0717
-5.75159
-7.06434
-8.60169
-7.49818
-7.71491
-8.39233
-8.60202
-7.49834
-7.71504
-4.76796
-6.91801
-6.26294
-3.80437
-6.26984
-3.76993
-4.78146
-4.76987
-6.9302
-6.27519
-3.80586
-6.27491
-3.7723
-4.7864
-7.00489
-7.59366
-6.56847
-7.65474
-6.56042
-7.64505
-7.00983
-7.00677
-7.59552
-6.57456
-7.65877
-6.56256
-7.64666
-7.01464
-1.73701
-1.56481
-0.813842
-1.55409
-0.811199
-1.72569
-1.73537
-1.55464
-0.812817
-1.55112
-0.811427
-1.72094
-5.88794
-2.93653
-2.90583
-1.93494
-1.92203
-2.34353
-2.67472
-3.31138
-1.8221
-3.3375
-1.80679
-2.33999
-5.91475
-2.93089
-2.9018
-1.89893
-1.90231
-10.2395
-8.98833
-9.10717
-9.89771
-9.09647
-9.90501
-10.2365
-9.90069
-9.58728
-9.57887
-8.91494
-8.90995
-10.2397
-8.98902
-9.10771
-9.89695
-9.09694
-9.90537
-10.2362
-9.89938
-9.58414
-9.57885
-1.03373
-0.590285
-0.953654
-0.476408
-0.96011
-0.46849
-1.02792
-1.191
-1.77289
-0.964894
-1.78297
-0.96414
-1.19
-1.03307
-0.589725
-0.952953
-0.47366
-0.959759
-0.467104
-1.02664
-1.19035
-1.78061
-0.957378
-1.78675
-0.960169
-1.18884
-1.40984
-2.13153
-0.598213
-2.14098
-0.590604
-9.72257
-9.72359
-9.06982
-9.13994
-9.16017
-9.06144
-9.16078
-9.06225
-9.07049
-9.13943
-9.08141
-9.0095
-9.13415
-9.00893
-9.13435
-9.13563
-9.07003
-9.1401
-9.16112
-9.06185
-9.161
-9.06244
-9.07136
-0.308597
-0.895396
-0.639071
-0.605898
-0.641723
-0.606151
-0.314626
-0.369602
0.221711
-0.104942
-0.0121837
-0.10534
-0.0117319
-0.36292
-0.356645
-0.355904
-0.308565
-0.895285
-0.638889
-0.605766
-0.641626
-0.606115
-0.314528
-0.369612
0.221667
-0.10508
-0.0122971
-0.105372
-0.0117414
-0.36303
-0.356615
-0.355884
-0.850626
-8.89763
-8.91532
-8.94545
-8.86205
-8.9454
-8.86128
-8.89746
-8.93138
-9.03114
-8.94301
-8.9851
-8.94155
-8.9849
-8.93135
-8.89753
-8.91518
-8.94568
-8.86174
-8.94544
-8.86109
-8.89768
0.540222
0.00794524
0.233706
0.509143
0.230648
0.511652
0.536344
0.586223
0.947986
0.401067
0.952983
0.391788
0.960366
0.589801
0.540028
0.00782063
0.233314
0.507505
0.230569
0.51121
0.535605
0.5859
0.948719
0.397826
0.954827
0.390888
0.961022
0.588881
0.0226125
0.669204
0.676308
-8.83049
-8.79401
-8.89982
-8.74676
-8.90041
-8.74472
-8.82978
-8.84267
-8.91479
-8.86017
-8.91374
-8.86025
-8.91387
-8.84312
-8.83044
-8.79392
-8.89975
-8.74625
-8.90048
-8.74473
-8.82955
1.07967
0.779583
0.776064
1.07594
0.987866
1.10019
1.01575
1.07888
1.01553
1.07726
0.990091
1.01552
0.778128
0.682902
0.983706
0.675712
0.987267
1.01325
1.07996
0.779842
0.776046
1.07649
0.987773
1.09983
1.01536
1.07704
1.01541
1.07649
0.989753
-9.04925
-9.05499
-8.70167
-8.8958
-8.4465
-8.8997
-8.4437
-9.05137
-9.056
-8.70145
-8.8943
-8.44609
-8.89903
-8.44368
-8.7166
-8.74632
-8.82723
-8.69909
-8.83046
-8.698
-8.71466
1.57852
1.46482
1.46586
1.45742
1.20127
1.19526
1.4257
1.19406
1.42807
1.45604
1.57886
1.46648
1.46666
-7.80231
-7.79845
-7.96739
-7.30076
-7.86076
-7.85789
-7.97149
-8.2758
-7.95871
-8.16293
-7.95191
-8.1672
-7.94428
-8.26973
-7.80343
-7.79888
-7.96588
-7.29959
-7.85886
-7.85706
-7.96829
-8.27842
-7.95915
-8.16543
-7.95286
-8.16833
-7.94477
-8.27504
-8.05641
-8.56865
-7.90357
-8.56853
-7.90179
-8.06379
1.6157
1.62381
1.51526
1.7681
1.5145
1.76495
1.61818
1.74998
2.34199
2.05646
1.80105
2.05609
1.79161
1.7517
1.61586
1.62438
1.51616
1.76798
1.5151
1.76484
1.61847
1.75013
2.342
2.05636
1.8018
2.05598
1.79183
1.75208
1.72151
1.83081
1.82903
-8.17399
-8.16777
-7.96817
-8.17106
-8.40712
-7.93302
-8.41729
-7.92239
-7.97525
-8.17228
-8.16697
-7.96626
-8.17163
-8.41214
-7.93069
-8.41984
-7.92135
-7.97124
-7.7824
-8.86603
-8.01747
-8.07812
-8.01108
-8.07594
-7.79534
-8.4247
-7.93029
-8.09148
-8.00151
-8.0872
-7.99649
-8.41188
-8.2316
-7.91781
-7.9095
-8.2284
-7.78245
-8.86588
-8.01766
-8.07812
-8.01113
-8.07585
-7.79555
-8.42497
-7.93057
-8.09319
-8.00193
-8.08802
-7.99665
-8.41255
1.61028
2.76597
2.08064
2.66245
2.07853
2.66381
1.62584
1.17084
-1.22564
1.84677
-0.534921
1.86096
-0.546897
1.16666
1.61136
2.76606
2.08226
2.66774
2.07907
2.66454
1.62941
1.17232
-1.22894
1.85318
-0.539092
1.86204
-0.548316
1.17058
-9.79544
-9.95648
-9.75427
-9.94938
-9.75586
-9.79596
-9.95775
-9.75278
-9.95154
-9.75427
-8.89251
-8.38315
-8.43415
-8.42759
-8.89123
-9.56852
-9.33977
-10.104
-8.92993
-10.1118
-8.91587
-9.56485
-8.93865
-8.94928
-8.89256
-8.38323
-8.4344
-8.42773
-8.89161
-9.56919
-9.34019
-10.1096
-8.93161
-10.1128
-8.91621
-9.56795
-8.17443
-8.76781
-8.54801
-8.29252
-8.55002
-8.28741
-8.18401
-7.05787
-4.519
-9.9802
-5.75803
-10.0691
-5.75149
-7.06062
)
;

boundaryField
{
    fixedWalls
    {
        type            zeroGradient;
    }
    frontAndBack
    {
        type            empty;
    }
    right
    {
        type            fixedValue;
        value           uniform 0;
    }
    left
    {
        type            zeroGradient;
    }
    model
    {
        type            zeroGradient;
    }
}


// ************************************************************************* //
