/*--------------------------------*- C++ -*----------------------------------*\
  =========                 |
  \\      /  F ield         | OpenFOAM: The Open Source CFD Toolbox
   \\    /   O peration     | Website:  https://openfoam.org
    \\  /    A nd           | Version:  7
     \\/     M anipulation  |
\*---------------------------------------------------------------------------*/
FoamFile
{
    version     2.0;
    format      ascii;
    class       surfaceScalarField;
    location    "1";
    object      phi;
}
// * * * * * * * * * * * * * * * * * * * * * * * * * * * * * * * * * * * * * //

dimensions      [0 3 -1 0 0 0 0];

internalField   nonuniform List<scalar> 
2879
(
7.60705e-06
-1.06337e-06
8.63162e-06
-1.02457e-06
9.83321e-06
-1.20159e-06
1.14205e-05
-1.58728e-06
1.35259e-05
-2.10542e-06
1.62022e-05
-2.67627e-06
1.94128e-05
-3.21063e-06
2.30153e-05
-3.60244e-06
2.6695e-05
-3.67977e-06
2.97563e-05
-3.06126e-06
3.10304e-05
-1.27413e-06
2.9946e-05
1.08437e-06
2.71678e-05
2.77826e-06
2.39561e-05
3.21164e-06
2.13567e-05
2.59949e-06
2.01075e-05
1.24914e-06
2.09651e-05
-8.57619e-07
2.51546e-05
-4.18946e-06
3.49566e-05
-9.80196e-06
-1.50113e-05
2.07788e-05
-2.65108e-06
2.27054e-05
-2.95123e-06
2.52573e-05
-3.75346e-06
2.8674e-05
-5.00404e-06
3.31217e-05
-6.55306e-06
3.86416e-05
-8.19618e-06
4.51172e-05
-9.68629e-06
5.22573e-05
-1.07425e-05
5.9516e-05
-1.09385e-05
6.57483e-05
-9.29356e-06
6.87917e-05
-4.31752e-06
6.73202e-05
2.55585e-06
6.24115e-05
7.68697e-06
5.64127e-05
9.21047e-06
5.11852e-05
7.82692e-06
4.78379e-05
4.59645e-06
4.68682e-05
1.12115e-07
4.84446e-05
-5.76583e-06
5.10195e-05
-1.23769e-05
-1.39546e-05
3.07331e-05
-4.23898e-06
3.28146e-05
-5.03274e-06
3.57405e-05
-6.67939e-06
3.9746e-05
-9.00954e-06
4.49657e-05
-1.17727e-05
5.139e-05
-1.46205e-05
5.88202e-05
-1.71165e-05
6.69344e-05
-1.88567e-05
7.53357e-05
-1.93397e-05
8.30046e-05
-1.69625e-05
8.70748e-05
-8.38771e-06
8.51499e-05
4.48084e-06
7.88656e-05
1.39712e-05
7.17717e-05
1.63043e-05
6.57095e-05
1.38892e-05
6.1329e-05
8.97688e-06
5.86759e-05
2.76528e-06
5.69045e-05
-3.99442e-06
5.43181e-05
-9.7905e-06
-9.58888e-06
3.71501e-05
-5.47168e-06
3.8862e-05
-6.74468e-06
4.14229e-05
-9.24031e-06
4.50423e-05
-1.2629e-05
4.98022e-05
-1.65325e-05
5.55871e-05
-2.04055e-05
6.20182e-05
-2.35476e-05
6.866e-05
-2.54985e-05
7.54436e-05
-2.61234e-05
8.25719e-05
-2.40908e-05
8.67443e-05
-3.9374e-06
-2.34452e-06
-3.93668e-06
-2.34145e-06
8.34948e-05
9.11696e-07
2.9511e-06
9.14632e-07
2.95291e-06
7.58754e-05
2.15906e-05
6.98686e-05
2.23111e-05
6.54795e-05
1.82784e-05
6.23954e-05
1.2061e-05
6.00843e-05
5.07632e-06
5.76595e-05
-1.56962e-06
5.40575e-05
-6.18844e-06
-5.46943e-06
4.03199e-05
-6.04198e-06
4.12781e-05
-7.7029e-06
4.29259e-05
-1.08881e-05
4.54184e-05
-1.51214e-05
4.87524e-05
-1.98665e-05
5.26274e-05
-2.42806e-05
5.62266e-05
-2.71467e-05
5.83951e-05
-2.7667e-05
5.92209e-05
-2.69492e-05
1.53779e-05
-5.47583e-06
1.19925e-05
1.53763e-05
1.19855e-05
-4.32457e-06
-5.47745e-06
-4.32422e-06
1.63317e-05
-4.89112e-06
-2.42259e-11
-1.64068e-05
1.62329e-05
2.0105e-10
4.64598e-07
7.78182e-08
7.87401e-08
4.64192e-07
5.26249e-05
4.96178e-06
-1.4939e-05
-1.0811e-05
-1.4937e-05
-1.08087e-05
5.26872e-06
4.96181e-06
5.26896e-06
5.29036e-05
2.20324e-05
5.37768e-05
1.74052e-05
5.45972e-05
1.12405e-05
5.49513e-05
4.72231e-06
5.43377e-05
-9.56061e-07
5.23425e-05
-4.19324e-06
-3.05292e-06
4.09425e-05
-5.71988e-06
4.08641e-05
-7.6245e-06
4.11958e-05
-1.12199e-05
4.20109e-05
-1.59365e-05
4.32229e-05
-2.10784e-05
4.43292e-05
-2.53869e-05
4.41291e-05
-2.69467e-05
3.8941e-05
-5.98708e-06
-5.25216e-06
-5.98731e-06
-5.25235e-06
8.22853e-06
-4.15308e-06
5.39003e-06
8.22661e-06
5.38797e-06
-3.46801e-06
-4.15322e-06
-3.4671e-06
7.17462e-06
-4.42179e-06
-1.32683e-10
8.07557e-07
-1.4477e-06
7.83993e-11
1.28198e-06
-6.41921e-07
-1.14941e-06
5.30813e-06
3.34156e-06
1.37117e-11
-1.15036e-06
-6.94242e-07
-6.93912e-07
3.10592e-05
1.24962e-05
-6.33868e-06
-4.4225e-06
-6.3389e-06
-4.42279e-06
3.81618e-05
1.03025e-05
4.35269e-05
5.87542e-06
4.7364e-05
8.85271e-07
4.96095e-05
-3.20162e-06
5.02715e-05
-4.85519e-06
-2.69844e-06
3.99963e-05
-4.38829e-06
3.86976e-05
-6.32586e-06
3.74267e-05
-9.94894e-06
3.61728e-05
-1.46827e-05
3.48469e-05
-1.97526e-05
3.30538e-05
-2.35937e-05
7.56455e-06
-5.56991e-06
6.14228e-06
7.56453e-06
6.14202e-06
-5.08333e-06
-5.56982e-06
-5.08319e-06
6.78768e-06
-5.2102e-06
-8.19399e-12
3.84359e-06
-1.63801e-11
-5.64268e-06
-5.15405e-07
-6.61771e-07
-6.61807e-07
-5.14991e-07
4.39624e-07
-4.71914e-07
6.83821e-11
3.67181e-07
-3.3496e-07
-3.31311e-07
-5.91614e-08
-4.91948e-11
1.84286e-07
2.06235e-07
1.72494e-05
2.56561e-06
-2.12702e-06
-1.53275e-06
-2.12665e-06
-1.53242e-06
2.65367e-05
1.0152e-06
3.44808e-05
-2.06865e-06
4.08274e-05
-5.46137e-06
4.55153e-05
-7.88949e-06
4.85622e-05
-7.90213e-06
-4.05024e-06
3.86316e-05
-2.0403e-06
3.60377e-05
-3.73198e-06
3.30038e-05
-6.91503e-06
2.94674e-05
-1.11463e-05
2.53541e-05
-1.56392e-05
5.55242e-06
-1.8353e-05
4.50418e-06
5.55245e-06
4.50436e-06
4.92419e-06
-4.94169e-06
2.77997e-12
-3.70799e-12
3.94404e-06
-3.97579e-06
4.73753e-07
6.71148e-07
6.71762e-07
4.73321e-07
-4.7946e-07
-6.49713e-07
-6.50063e-07
-4.78996e-07
2.91759e-07
-2.91787e-07
2.77246e-11
-4.71906e-09
-5.12029e-12
1.07688e-08
-6.04464e-09
1.16777e-05
-5.96596e-06
-8.20562e-07
-7.52777e-07
-8.20278e-07
-7.52525e-07
2.10215e-05
-8.32862e-06
2.97071e-05
-1.07542e-05
3.71314e-05
-1.28856e-05
4.311e-05
-1.38681e-05
4.75569e-05
-1.2349e-05
-6.41237e-06
3.8062e-05
1.21928e-06
3.42301e-05
9.98772e-08
2.94195e-05
-2.10443e-06
2.35845e-05
-5.31129e-06
1.72753e-05
-9.32995e-06
2.89253e-06
-2.8316e-06
2.23456e-06
2.89255e-06
2.23431e-06
-2.83424e-06
-2.8317e-06
-2.83417e-06
-2.96606e-06
7.94092e-12
3.92216e-06
4.40224e-07
5.27718e-07
5.28277e-07
4.40194e-07
3.6951e-07
-2.21774e-07
8.54766e-11
-1.47821e-07
3.1142e-08
-5.64451e-12
1.14271e-08
-4.25635e-08
1.2535e-05
-1.42899e-05
-9.10748e-07
-1.19472e-06
-9.10737e-07
-1.19483e-06
2.13544e-05
-1.71481e-05
2.96009e-05
-1.90007e-05
3.67754e-05
-2.00602e-05
4.27247e-05
-1.98174e-05
4.73503e-05
-1.69746e-05
-8.99507e-06
3.94588e-05
5.14725e-06
3.46008e-05
4.95782e-06
2.81248e-05
4.37162e-06
1.99017e-05
2.9118e-06
2.85997e-06
-3.53106e-08
2.44357e-06
2.85998e-06
2.44352e-06
2.00809e-06
-1.97972e-06
-3.17673e-12
4.96736e-07
-3.19767e-07
3.11186e-11
2.44769e-07
-4.21769e-07
1.48831e-07
2.03988e-12
1.44231e-07
-2.93064e-07
1.9414e-05
-2.25906e-05
-2.33973e-06
-3.2169e-06
-2.33968e-06
-3.21695e-06
2.70615e-05
-2.47955e-05
3.3846e-05
-2.57852e-05
3.95869e-05
-2.58011e-05
4.42611e-05
-2.44916e-05
4.78853e-05
-2.05988e-05
-1.10607e-05
4.38604e-05
9.31996e-06
3.84357e-05
1.03825e-05
3.07135e-05
1.20938e-05
2.02499e-05
1.33754e-05
2.11911e-06
1.2044e-05
1.9666e-06
2.11882e-06
1.96614e-06
1.04264e-06
9.76244e-08
-2.26945e-11
9.78869e-07
1.72735e-07
-9.01582e-08
2.13916e-11
3.43409e-08
-1.16939e-07
2.61323e-05
-2.39911e-05
3.33945e-06
4.12032e-06
3.33911e-06
4.12048e-06
-3.50336e-06
-5.02723e-06
-3.503e-06
-5.02699e-06
3.19725e-05
-2.84309e-05
3.72634e-05
-3.00864e-05
4.1627e-05
-3.01488e-05
4.49678e-05
-2.91419e-05
4.73653e-05
-2.68891e-05
4.90282e-05
-2.22616e-05
-1.20075e-05
5.19223e-05
1.31035e-05
4.67996e-05
1.55052e-05
3.89486e-05
1.99448e-05
2.71213e-05
2.52027e-05
2.44085e-06
2.83654e-05
2.95954e-06
2.4404e-06
2.95907e-06
-1.28177e-06
3.09889e-06
-3.89422e-11
1.46771e-07
1.65187e-07
1.65136e-07
1.46681e-07
1.09509e-08
-1.63965e-08
-2.55339e-12
5.44818e-09
2.62912e-07
-4.81479e-07
3.92017e-06
-2.76365e-06
-3.27997e-11
2.62435e-07
2.5816e-07
2.58393e-07
-4.82381e-07
-6.16786e-07
-6.17744e-07
3.77554e-05
-2.50002e-05
3.14831e-06
3.92068e-06
3.14841e-06
3.92079e-06
-5.8102e-06
-7.63681e-06
-5.80972e-06
-7.63668e-06
4.34796e-05
-2.97153e-05
4.733e-05
-3.22813e-05
4.99432e-05
-3.26996e-05
5.1456e-05
-3.16616e-05
5.19039e-05
-2.95898e-05
5.14628e-05
-2.6448e-05
5.05739e-05
-2.13727e-05
-1.14297e-05
6.34456e-05
1.57132e-05
5.99327e-05
1.9018e-05
5.43479e-05
2.55297e-05
4.51625e-05
3.43881e-05
5.86212e-06
4.36484e-05
9.07817e-06
5.86114e-06
9.07801e-06
-5.24579e-06
8.71284e-06
-8.37194e-11
6.83643e-07
5.13816e-07
5.13315e-07
6.84375e-07
-1.97505e-07
6.28992e-11
4.97963e-07
-3.00521e-07
5.5335e-07
-5.54068e-06
7.50933e-06
-4.26475e-06
9.08836e-12
5.53343e-07
5.942e-07
5.95196e-07
5.27879e-05
-2.79451e-05
4.11857e-06
4.63357e-06
4.11819e-06
4.63345e-06
-9.40254e-06
-1.17708e-05
-9.40246e-06
-1.17707e-05
5.86477e-05
-3.08599e-05
6.19478e-05
-3.30155e-05
6.32387e-05
-3.35721e-05
6.30874e-05
-3.25483e-05
6.17169e-05
-3.02911e-05
5.92385e-05
-2.71115e-05
5.58788e-05
-2.30884e-05
5.22861e-05
-1.778e-05
-9.16254e-06
7.66095e-05
1.65313e-05
7.58146e-05
1.9813e-05
7.49506e-05
2.63937e-05
7.39775e-05
3.53612e-05
1.62882e-05
4.41967e-05
2.04263e-05
1.62882e-05
2.04265e-05
-1.13524e-05
1.5779e-05
1.18616e-05
6.17642e-12
-4.52954e-06
-4.21688e-10
3.41225e-06
1.11771e-06
6.70738e-07
-1.18882e-05
1.26907e-05
-3.45289e-06
2.99014e-11
6.70897e-07
6.54325e-07
6.5447e-07
7.06736e-05
-2.34223e-05
4.12731e-06
4.74209e-06
4.12722e-06
4.74197e-06
-1.41035e-05
-1.83915e-05
-1.41034e-05
-1.83916e-05
7.54408e-05
-2.78979e-05
5.63483e-06
5.93051e-06
5.63482e-06
5.93055e-06
7.82418e-05
-3.07461e-05
7.97434e-05
-3.23615e-05
7.94958e-05
-3.27679e-05
7.7759e-05
-3.18354e-05
7.48196e-05
-2.9609e-05
7.08084e-05
-2.62798e-05
6.57754e-05
-2.20785e-05
5.98955e-05
-1.72084e-05
5.39009e-05
-1.17854e-05
-5.29965e-06
8.79594e-05
1.55128e-05
8.9691e-05
1.80813e-05
9.29347e-05
2.315e-05
9.88477e-05
2.94482e-05
0.000109108
3.39362e-05
0.000118436
2.9203e-05
-1.05841e-05
-8.68136e-06
-1.05838e-05
-8.68105e-06
0.000117208
1.13099e-05
-4.28343e-06
-7.57746e-07
-4.28298e-06
-7.58051e-07
0.000111032
-6.8003e-06
2.71657e-06
3.77152e-06
2.71672e-06
3.7718e-06
0.000105926
-1.83163e-05
0.000102788
-2.47602e-05
0.000100043
-2.80015e-05
9.69111e-05
-2.92293e-05
9.30385e-05
-2.88953e-05
8.83998e-05
-2.71967e-05
8.3071e-05
-2.42801e-05
7.70588e-05
-2.02677e-05
7.02913e-05
-1.53111e-05
6.27825e-05
-9.69958e-06
5.51606e-05
-4.16349e-06
-1.97021e-07
9.38811e-05
1.30974e-05
9.72135e-05
1.47489e-05
0.000102385
1.79783e-05
0.00011013
2.17032e-05
0.000120309
2.37579e-05
0.000129472
2.00398e-05
0.00013186
8.92144e-06
0.000128695
-3.63554e-06
0.000123478
-1.30985e-05
0.000117706
-1.89888e-05
0.000111764
-2.20596e-05
0.000105584
-2.30485e-05
9.91426e-05
-2.24544e-05
9.25114e-05
-2.05655e-05
8.57524e-05
-1.75211e-05
7.88432e-05
-1.33585e-05
7.16138e-05
-8.0816e-06
6.38524e-05
-1.93817e-06
5.58075e-05
3.88137e-06
5.53448e-06
9.16001e-05
9.79432e-06
9.57344e-05
1.06146e-05
0.000101437
1.22756e-05
0.000109018
1.41226e-05
0.000118001
1.47745e-05
0.000125908
1.21334e-05
0.000129307
5.52167e-06
0.000127961
-2.28884e-06
0.000123532
-8.66964e-06
0.000117385
-1.28421e-05
0.000110342
-1.50166e-05
0.000102892
-1.55984e-05
9.53787e-05
-1.49412e-05
8.80846e-05
-1.32714e-05
8.12035e-05
-1.06399e-05
7.47845e-05
-6.93952e-06
6.86795e-05
-1.97663e-06
6.24511e-05
4.29029e-06
5.57002e-05
1.06322e-05
1.11417e-05
7.92808e-05
6.10057e-06
8.3653e-05
6.24241e-06
8.91475e-05
6.78109e-06
9.58146e-05
7.45546e-06
0.000103078
7.51084e-06
0.000109258
5.95402e-06
0.000112249
2.53035e-06
0.000111489
-1.52868e-06
0.000107721
-4.90167e-06
0.000101982
-7.1031e-06
9.51385e-05
-8.17324e-06
8.78811e-05
-8.34108e-06
8.07463e-05
-7.80638e-06
7.41534e-05
-6.67854e-06
6.84384e-05
-4.92494e-06
6.38248e-05
-2.32589e-06
6.03564e-05
1.49178e-06
5.76281e-05
7.01854e-06
5.44107e-05
1.38497e-05
1.54444e-05
5.59773e-05
2.50653e-06
5.99386e-05
2.28101e-06
6.44713e-05
2.24841e-06
6.95573e-05
2.36954e-06
7.47374e-05
2.33073e-06
7.89202e-05
1.77122e-06
8.08178e-05
6.32713e-07
7.99973e-05
-7.08168e-07
7.68595e-05
-1.76387e-06
7.2158e-05
-2.40156e-06
6.66417e-05
-2.65703e-06
6.09235e-05
-2.62279e-06
5.54939e-05
-2.37679e-06
5.07595e-05
-1.94415e-06
4.71106e-05
-1.27602e-06
4.49856e-05
-2.00955e-07
4.48475e-05
1.62989e-06
4.70255e-05
4.84052e-06
5.03609e-05
1.05143e-05
1.56823e-05
2.17837e-05
2.40647e-05
2.63131e-05
2.86827e-05
3.10134e-05
3.27846e-05
3.34173e-05
3.27092e-05
3.09453e-05
2.85437e-05
2.58867e-05
2.32639e-05
2.08871e-05
1.8943e-05
1.7667e-05
1.7466e-05
1.90959e-05
2.39364e-05
3.44507e-05
2.32313e-10
-7.26574e-07
-4.84695e-07
-4.84265e-07
-7.24321e-07
-1.01566e-10
-8.08882e-07
-7.06331e-07
-7.07002e-07
2.87747e-06
2.18755e-06
2.18958e-06
2.87664e-06
2.20684e-06
-6.43958e-07
6.35152e-10
4.05871e-07
-1.96939e-06
1.63276e-05
-4.88801e-06
1.64035e-05
-7.25735e-07
-4.84306e-07
-4.84497e-07
-7.22552e-07
-8.08512e-07
2.87689e-06
2.18552e-06
2.18933e-06
2.87548e-06
-8.09306e-07
-7.05714e-07
-7.06283e-07
2.20303e-06
-6.40404e-07
3.29081e-10
4.05393e-07
-1.96835e-06
4.24488e-06
1.35369e-10
1.06189e-10
-6.9807e-08
2.27654e-06
1.47888e-10
8.45875e-07
-2.78997e-06
-2.02094e-06
-2.02177e-06
-2.79116e-06
8.46669e-07
6.81805e-07
6.83243e-07
1.62297e-05
4.64869e-07
7.92074e-08
7.98136e-08
4.64707e-07
4.24582e-06
8.70521e-11
-7.13356e-08
2.27428e-06
8.45702e-07
-2.78933e-06
-2.01948e-06
-2.02116e-06
-2.78983e-06
8.46584e-07
6.81653e-07
6.8314e-07
-2.99531e-10
1.44825e-06
1.01315e-06
1.01345e-06
-6.38312e-07
-3.98093e-07
-3.98589e-07
-6.37216e-07
-1.23826e-10
-4.42125e-07
-3.6713e-07
-3.67005e-07
7.85145e-07
5.06978e-07
5.06852e-07
7.85276e-07
7.17023e-06
-4.4212e-06
1.44717e-06
-6.38174e-07
-3.99536e-07
-3.99489e-07
-6.37118e-07
1.4477e-06
1.01224e-06
1.01292e-06
-4.3946e-07
7.84554e-07
5.06507e-07
5.06568e-07
7.84299e-07
-4.41947e-07
-3.67018e-07
-3.66856e-07
9.95899e-11
-6.44058e-07
1.00645e-10
1.27735e-06
-6.38791e-07
2.0552e-11
-6.40425e-07
-2.73823e-10
-9.80261e-07
6.76999e-07
1.57745e-07
5.91678e-08
-5.60817e-12
-2.16907e-07
1.14914e-06
-2.67498e-10
-9.79891e-07
6.7672e-07
1.57296e-07
5.91875e-08
5.30174e-11
-2.16537e-07
4.23816e-06
7.45752e-12
2.70188e-06
-1.87879e-11
3.30279e-07
4.03253e-07
4.03522e-07
-1.57425e-07
-2.56474e-07
-2.57023e-07
1.11381e-11
2.51753e-06
5.30839e-06
3.3408e-06
-1.15022e-06
-6.94151e-07
-6.9386e-07
4.23847e-06
2.70131e-06
3.30874e-07
-1.57408e-07
-2.56457e-07
-2.57048e-07
3.30256e-07
4.03005e-07
4.03547e-07
2.51699e-06
5.07607e-11
4.74165e-07
3.34921e-07
3.34874e-07
-3.24623e-07
-2.95698e-07
-2.95477e-07
-3.24545e-07
-6.45112e-07
-7.53258e-11
4.86908e-07
4.50039e-07
3.84269e-06
-5.64246e-06
-5.1533e-07
-6.6158e-07
-6.61697e-07
-5.1485e-07
4.71731e-07
-3.24445e-07
-2.95605e-07
-2.95396e-07
-3.24214e-07
4.73995e-07
3.3483e-07
3.34737e-07
-2.91677e-07
-6.4478e-07
-5.92793e-11
4.86853e-07
4.49664e-07
6.98109e-11
3.67069e-07
-3.34868e-07
6.44427e-12
5.91843e-08
3.25616e-12
1.44337e-06
3.91654e-11
-2.36641e-07
-2.89878e-07
-2.89702e-07
-2.36682e-07
1.01261e-11
-3.29871e-08
2.8258e-08
2.9139e-11
3.72024e-07
-1.27891e-07
-1.02905e-07
-1.02693e-07
-1.27943e-07
-9.06096e-11
1.84239e-07
2.0591e-07
1.44304e-06
-2.36652e-07
-2.89764e-07
-2.89672e-07
-2.36572e-07
4.69041e-09
7.21611e-12
-3.29098e-08
2.82122e-08
3.71845e-07
-1.27857e-07
-1.02804e-07
-1.02712e-07
-1.27818e-07
4.86818e-07
1.9178e-10
-4.87947e-07
-2.90851e-07
-4.34454e-07
-2.2865e-10
4.96204e-07
3.07988e-07
3.94387e-06
-3.97548e-06
4.73737e-07
6.70999e-07
6.71672e-07
4.73309e-07
-4.79477e-07
-6.49595e-07
-6.49994e-07
-4.79042e-07
2.91706e-07
4.86782e-07
1.95002e-10
-4.87841e-07
-2.90842e-07
-3.69443e-07
-4.34431e-07
-2.32991e-10
4.96124e-07
3.07982e-07
2.90117e-11
-2.63934e-07
2.28666e-11
-4.32834e-08
-4.90281e-08
-4.90467e-08
-4.32695e-08
-6.63961e-12
2.30589e-08
8.0898e-09
1.22858e-11
-8.62042e-07
-3.83154e-08
-3.90795e-08
-3.90431e-08
-3.82432e-08
-7.37924e-12
1.07715e-08
-6.07372e-09
-2.63731e-07
-4.32897e-08
-4.90127e-08
-4.90574e-08
-4.33196e-08
-3.1197e-08
-2.76393e-12
2.32309e-08
7.96887e-09
-8.61613e-07
-3.83367e-08
-3.89855e-08
-3.89607e-08
-3.8348e-08
6.23199e-07
1.75038e-10
-4.12907e-07
-4.32241e-07
-1.4247e-11
-4.97151e-07
-4.0031e-07
-4.00525e-07
3.02918e-07
2.28972e-07
2.28771e-07
3.02577e-07
-1.6259e-11
1.19872e-07
-1.19856e-07
-2.96532e-06
3.92159e-06
4.40218e-07
5.27668e-07
5.28204e-07
4.40193e-07
2.21775e-07
6.23099e-07
1.67078e-10
-4.12846e-07
-4.32195e-07
-4.96568e-07
3.02821e-07
2.29153e-07
2.28933e-07
3.02366e-07
-4.97076e-07
-4.00187e-07
-4.00462e-07
-9.3984e-12
1.20117e-07
-1.20108e-07
8.19954e-11
-1.4775e-07
-1.55936e-06
3.96644e-12
-5.52176e-08
-5.14834e-08
-5.1413e-08
-5.53209e-08
-1.60943e-11
8.62412e-08
6.26063e-08
-6.20311e-12
-2.29424e-06
-9.44137e-08
-1.35385e-07
-1.35489e-07
-9.45431e-08
1.63274e-12
1.15229e-08
-4.27216e-08
-1.55894e-06
-5.5136e-08
-5.1499e-08
-5.15596e-08
-5.52093e-08
-1.4892e-07
-2.3854e-12
8.62177e-08
6.27042e-08
-2.29404e-06
-9.43542e-08
-1.3545e-07
-1.35471e-07
-9.44592e-08
-1.32312e-07
-9.41859e-12
2.50546e-07
5.451e-08
-3.19675e-07
3.08082e-11
2.44688e-07
-4.21612e-07
-1.72484e-07
-1.32447e-07
-1.89808e-11
2.50256e-07
5.46937e-08
3.20669e-07
-3.76967e-07
7.09143e-11
3.44444e-07
-2.88217e-07
3.20767e-07
-3.76898e-07
8.33642e-11
3.44257e-07
-2.88209e-07
-3.43648e-06
2.34184e-11
-3.37316e-07
-2.61291e-07
-2.61235e-07
-3.37672e-07
2.53307e-06
5.75082e-12
5.50267e-07
4.05246e-07
4.04826e-07
5.50369e-07
-3.21827e-07
-2.30874e-07
-2.30965e-07
1.72642e-11
-3.02773e-12
1.44246e-07
-2.93162e-07
-3.4362e-06
-3.37303e-07
-2.6131e-07
-2.61307e-07
-3.37581e-07
2.53264e-06
-3.21863e-07
-2.30944e-07
-2.31008e-07
5.50252e-07
4.0553e-07
4.04989e-07
5.50279e-07
-4.26071e-07
-3.33013e-11
1.14769e-06
9.02304e-08
7.03968e-08
7.02686e-08
7.82483e-07
-3.42074e-11
-4.46522e-11
2.58256e-08
1.34956e-08
2.58447e-08
4.00757e-08
4.00386e-08
1.35874e-08
9.8748e-08
9.88405e-08
1.04231e-06
9.73644e-08
9.79121e-07
-4.2612e-07
9.02542e-08
1.14776e-06
9.02736e-08
7.00286e-08
7.00888e-08
7.82044e-07
1.28143e-06
2.57379e-08
1.34147e-08
2.58025e-08
3.98635e-08
3.99363e-08
1.35638e-08
9.87222e-08
9.88385e-08
-1.22819e-11
3.67888e-08
9.4783e-12
3.41929e-08
-1.16432e-07
-1.08777e-08
-7.86286e-12
3.66235e-08
-5.07151e-11
2.62962e-07
7.14812e-07
-4.57812e-07
-1.2775e-10
3.23558e-07
-5.8043e-07
-2.62324e-07
-4.05301e-11
2.62364e-07
7.14691e-07
-4.58025e-07
-1.37392e-10
3.23523e-07
-5.80051e-07
-3.12396e-06
-2.16204e-12
-5.02248e-07
-3.53217e-07
-3.53296e-07
-5.01887e-07
3.77911e-07
2.88198e-07
2.88182e-07
4.23053e-06
2.25496e-11
4.13863e-07
2.90306e-07
2.90291e-07
4.13083e-07
-7.15521e-07
-5.29909e-07
-5.29539e-07
1.03755e-11
-3.12367e-06
3.77883e-07
2.88193e-07
2.88145e-07
-5.02163e-07
-3.53234e-07
-3.5329e-07
-5.01765e-07
4.22986e-06
-7.15397e-07
-5.29534e-07
-5.29331e-07
4.13844e-07
2.90321e-07
2.90283e-07
4.13074e-07
3.35954e-12
-5.90379e-08
5.61336e-08
-4.64476e-11
1.78306e-07
2.28046e-07
2.28056e-07
1.78277e-07
1.78602e-07
3.92051e-11
-1.27354e-07
-5.12875e-08
3.09824e-06
1.46711e-07
1.65153e-07
1.65139e-07
1.46545e-07
1.62608e-08
9.85791e-12
-5.90718e-08
5.62158e-08
5.24475e-06
1.78289e-07
2.27984e-07
2.28027e-07
1.78209e-07
1.78472e-07
4.44045e-11
-1.27221e-07
-5.12955e-08
-3.08656e-13
5.38346e-09
6.6013e-07
-4.09651e-07
1.52462e-11
2.23064e-07
-4.73558e-07
6.60019e-07
-4.09716e-07
7.93439e-12
2.22599e-07
-4.7291e-07
2.70066e-10
-1.96071e-07
-2.85678e-07
-1.69006e-10
3.29418e-07
8.84231e-07
1.46468e-11
5.28938e-06
-3.12189e-06
3.29585e-07
4.10288e-07
4.12074e-07
3.2975e-07
-7.94125e-07
-1.0303e-06
-1.03077e-06
-7.94009e-07
4.81373e-07
2.68923e-10
-1.96047e-07
-2.85595e-07
-5.53421e-07
-1.73905e-10
3.29656e-07
8.83958e-07
5.28893e-06
-3.12152e-06
3.29547e-07
4.10043e-07
4.1188e-07
3.29715e-07
-7.9394e-07
-1.03025e-06
-1.03073e-06
-7.93666e-07
-3.64107e-06
5.34149e-12
4.58328e-07
4.17141e-07
4.17757e-07
6.64431e-06
-5.41341e-12
1.42001e-12
3.92029e-06
-2.76297e-06
2.62124e-07
2.57738e-07
2.58157e-07
-4.82267e-07
-6.16509e-07
-6.17548e-07
-3.64092e-06
4.58404e-07
4.17277e-07
4.17783e-07
6.64414e-06
-7.64151e-12
-1.57433e-07
3.36043e-07
-2.57806e-11
1.3004e-06
1.91826e-06
1.92003e-06
1.29991e-06
2.86889e-06
6.53302e-10
-1.33193e-06
-1.53761e-06
8.71004e-06
6.83845e-07
5.13906e-07
5.13479e-07
6.84528e-07
6.1935e-12
-1.57506e-07
3.35972e-07
1.135e-05
1.30087e-06
1.91735e-06
1.91932e-06
1.3005e-06
2.86896e-06
4.86235e-10
-1.33378e-06
-1.53566e-06
9.50218e-07
-5.00824e-07
9.09205e-11
2.61191e-07
-7.10675e-07
9.50086e-07
-5.01065e-07
9.56602e-11
2.6092e-07
-7.10036e-07
-1.3731e-11
-1.97491e-07
-8.91061e-11
3.76618e-07
1.24443e-06
3.75319e-11
6.57981e-06
-3.15431e-06
2.76278e-07
3.4501e-07
3.44714e-07
2.76401e-07
-9.20585e-07
-1.41304e-06
-1.41273e-06
-9.2158e-07
1.97438e-07
-1.38391e-11
-1.97424e-07
-6.70519e-07
-1.21338e-10
3.76684e-07
1.24404e-06
6.57884e-06
-3.15358e-06
2.76252e-07
3.44927e-07
3.44653e-07
2.76389e-07
-9.20586e-07
-1.41287e-06
-1.41253e-06
-9.21461e-07
-3.60297e-06
-8.76511e-12
-1.04703e-06
-6.98593e-07
-6.98146e-07
-1.04698e-06
4.10432e-07
3.66662e-07
3.66296e-07
8.34625e-06
8.02165e-12
6.45495e-07
5.34758e-07
5.35256e-07
6.45345e-07
4.41128e-12
9.48537e-06
6.59344e-11
4.97822e-07
-3.0045e-07
-3.60214e-06
5.54028e-06
4.10447e-07
3.66246e-07
3.66047e-07
-1.04689e-06
-6.9876e-07
-6.98206e-07
-1.04675e-06
8.3456e-06
6.45393e-07
5.34688e-07
5.35206e-07
6.45181e-07
9.48544e-06
-1.05244e-06
-7.88614e-11
-3.65631e-06
-2.96861e-06
-2.98067e-06
-3.65197e-06
5.00075e-07
7.10685e-07
7.10253e-07
2.17337e-05
-3.57763e-11
-2.21692e-05
-7.57376e-07
-1.16326e-06
-1.16489e-06
-7.62324e-07
-3.77151e-12
1.99235e-05
-4.52905e-06
-4.50122e-10
3.41199e-06
1.11751e-06
-1.04983e-06
1.18866e-05
5.00244e-07
7.10045e-07
7.09919e-07
-3.65572e-06
-2.96984e-06
-2.98176e-06
-3.65084e-06
2.17314e-05
-2.21685e-05
-7.5688e-07
-1.16293e-06
-1.16469e-06
-7.61424e-07
1.99235e-05
6.283e-07
-6.28286e-07
-1.05746e-10
9.19651e-11
1.27982e-06
-6.40238e-07
-1.30319e-10
6.96677e-10
-6.28399e-07
1.20335e-06
-4.3402e-10
6.28505e-07
-2.5684e-07
1.20178e-06
3.39271e-11
-2.55331e-07
-1.7394e-10
-2.15627e-11
-7.8893e-07
7.88952e-07
-7.88559e-07
7.88539e-07
-1.7243e-12
-4.10715e-06
-1.48144e-11
4.87613e-06
-9.49852e-12
-2.47814e-11
6.44626e-07
8.60264e-07
8.6049e-07
-4.87318e-07
-6.33329e-07
-6.34023e-07
6.78741e-06
-5.2102e-06
-4.10742e-06
4.87568e-06
6.44435e-07
8.5997e-07
8.60337e-07
-4.87276e-07
-6.33247e-07
-6.33978e-07
3.66951e-07
-3.34835e-07
-7.41854e-12
5.09752e-11
-3.90506e-11
-2.57888e-12
-1.06381e-12
-2.97426e-07
-1.22245e-07
-1.0317e-10
1.83128e-07
5.91294e-12
1.83596e-07
2.0593e-07
-5.93079e-08
1.10883e-11
1.34346e-11
2.97647e-07
3.23013e-11
1.22362e-07
8.38413e-08
3.63488e-12
8.37101e-08
7.38152e-12
1.83224e-07
-4.13494e-06
1.84095e-12
3.48465e-06
5.5065e-12
9.84069e-12
4.34699e-07
5.92255e-07
5.92769e-07
-6.2361e-07
-7.28603e-07
-7.29062e-07
4.92417e-06
-4.94153e-06
-4.13451e-06
3.48442e-06
4.34664e-07
5.92231e-07
5.92768e-07
-6.23559e-07
-7.2851e-07
-7.29007e-07
2.92014e-07
-2.91985e-07
-7.95891e-13
6.76492e-09
-9.04522e-09
-6.76758e-12
-4.09956e-08
-7.79461e-13
1.07451e-08
-6.04782e-09
-4.70297e-09
5.71791e-13
-2.05128e-11
-6.76154e-09
-3.14773e-08
1.18923e-12
9.01035e-09
-1.50562e-08
-3.15589e-08
1.72184e-12
-1.50923e-08
4.09431e-13
-4.10275e-08
-1.47849e-07
3.6982e-07
-2.21885e-07
8.31265e-14
-1.24151e-11
-1.47809e-07
-1.47862e-07
3.37084e-13
1.42274e-07
-1.39029e-08
1.41925e-11
-1.83599e-07
-3.65023e-12
1.14324e-08
-4.26139e-08
3.11733e-08
2.61023e-12
-5.2731e-12
-1.42299e-07
1.02248e-07
-7.56156e-12
1.39795e-08
-5.65355e-08
1.02284e-07
4.08767e-12
-5.65215e-08
-2.89431e-12
-1.83626e-07
-1.98337e-06
-3.48839e-12
3.20174e-07
2.5861e-07
2.58673e-07
1.44273e-06
-8.39848e-12
-2.86025e-12
1.32494e-07
1.71055e-07
1.71192e-07
2.00819e-06
-1.97991e-06
-1.98314e-06
3.2015e-07
2.58638e-07
2.58685e-07
1.44273e-06
1.32572e-07
1.71103e-07
1.71224e-07
2.85545e-07
-1.63512e-07
5.02283e-11
9.20906e-08
-2.14172e-07
-2.24536e-12
2.44844e-07
-4.21789e-07
-1.33607e-12
1.29116e-10
-2.85661e-07
1.29991e-07
-6.67685e-11
1.63607e-07
-3.267e-07
1.29994e-07
-4.1129e-13
-3.26694e-07
-4.06283e-13
9.20903e-08
-2.14093e-07
4.38241e-07
-2.25248e-07
-4.71897e-11
4.02306e-12
1.44182e-07
-2.92988e-07
1.48805e-07
2.06318e-12
6.74221e-11
-4.3835e-07
3.21222e-07
-8.8613e-12
2.257e-07
-1.1351e-07
3.21253e-07
3.31186e-12
-1.13424e-07
6.0361e-12
3.03148e-08
-3.03176e-08
7.70572e-12
-4.9077e-12
3.42411e-08
-1.16588e-07
1.72587e-07
1.18764e-11
2.69547e-11
-3.04258e-08
6.47398e-08
-7.87434e-11
3.04181e-08
-7.68813e-08
6.45635e-08
1.93662e-11
-7.6686e-08
-2.94324e-11
3.53296e-07
-4.41854e-07
1.70664e-10
2.03537e-12
8.58846e-14
-3.53217e-07
-1.92908e-11
4.41851e-07
-1.51526e-07
2.55794e-13
-1.51584e-07
9.46886e-13
5.47624e-09
1.08143e-08
-1.62902e-08
-2.94298e-12
3.45978e-12
5.44472e-09
5.47956e-09
1.41536e-13
-1.58919e-07
-4.15395e-11
3.58543e-07
-1.99584e-07
1.46407e-12
-2.44827e-11
1.58887e-07
-1.58863e-07
-1.58944e-07
7.87199e-13
3.58148e-07
-1.99302e-07
2.88171e-11
2.02199e-07
-2.02228e-07
5.76919e-13
2.02089e-07
-2.0206e-07
4.58382e-07
-8.60117e-07
2.02431e-10
-3.14891e-12
4.98154e-07
-3.00685e-07
-1.97404e-07
-2.12311e-12
3.86274e-11
-4.59042e-07
2.58373e-07
-9.66101e-11
8.60471e-07
-6.26136e-07
2.58436e-07
-6.83369e-12
-6.2564e-07
-1.57638e-12
-5.01511e-06
1.08355e-11
1.08554e-05
4.12818e-12
4.85731e-12
7.50862e-06
-4.26475e-06
5.53363e-07
5.9435e-07
5.9528e-07
-5.01534e-06
1.08555e-05
9.14675e-06
6.83659e-11
4.53836e-06
4.01733e-06
4.02013e-06
-2.87283e-06
-2.36562e-06
-2.36579e-06
2.17038e-05
1.00085e-11
3.86107e-12
1.57773e-05
1.18609e-05
9.14595e-06
-2.87289e-06
-2.36511e-06
-2.36575e-06
4.53841e-06
4.01681e-06
4.01989e-06
2.17036e-05
-4.39439e-07
-3.9743e-06
8.66701e-11
-3.44871e-11
3.41876e-06
1.11916e-06
2.01379e-11
1.31178e-09
4.42329e-07
-9.57281e-11
3.97188e-06
-3.6965e-11
-1.37594e-12
-4.56717e-06
2.26103e-11
1.91871e-05
1.47527e-11
1.14407e-11
1.26895e-05
-3.45303e-06
6.70836e-07
6.5435e-07
6.54532e-07
-4.56749e-06
1.91872e-05
2.92976e-06
-7.79137e-07
2.36387e-10
3.26379e-11
4.06431e-07
-1.96864e-06
2.17709e-10
2.20548e-06
-6.42847e-07
1.16059e-10
-2.93078e-06
2.85184e-06
-4.98246e-10
7.78225e-07
-5.59569e-07
8.80953e-11
2.85195e-06
3.36049e-11
-5.58734e-07
2.92895e-06
-7.78052e-07
2.88989e-10
4.06663e-07
-1.96902e-06
2.20339e-06
-6.40492e-07
-4.74459e-12
-2.92933e-06
2.85042e-06
-4.85717e-10
7.76106e-07
-5.58446e-07
2.8512e-06
-5.58191e-07
-2.85995e-06
5.34448e-07
9.73106e-11
3.6327e-11
-7.05655e-08
2.27612e-06
2.70836e-11
-1.38609e-10
2.85999e-06
-2.07244e-10
-5.33122e-07
3.56257e-11
3.38927e-11
-2.85927e-06
5.34684e-07
1.5501e-10
-7.15731e-08
2.27508e-06
-2.06737e-10
2.8585e-06
-2.59565e-10
-5.33526e-07
7.88586e-07
7.88383e-07
6.54002e-07
-5.06834e-07
-2.95364e-10
-3.99296e-11
-1.37263e-10
-6.54758e-07
2.56803e-07
-1.61253e-11
5.06994e-07
-3.6073e-11
2.55312e-07
1.38081e-12
6.53278e-07
-5.06561e-07
-3.76883e-10
-4.50746e-11
-6.5332e-07
2.53829e-07
-8.48487e-12
5.06515e-07
2.53708e-07
-6.42805e-07
5.75332e-11
-2.73463e-10
-3.55532e-11
-3.71033e-11
-5.67499e-11
6.27853e-07
-6.27739e-07
-2.19532e-11
1.27668e-06
-6.38325e-07
6.11614e-10
-6.27588e-07
1.19861e-06
-3.39693e-10
6.2761e-07
-2.53819e-07
1.1989e-06
-2.53661e-07
-6.40413e-07
-2.60419e-10
9.62043e-12
-4.91026e-07
4.91041e-07
-1.66901e-11
1.2596e-12
-9.80553e-07
6.76578e-07
1.41017e-11
-1.94108e-10
4.9069e-07
1.70491e-10
-4.90674e-07
4.73259e-07
8.99227e-12
4.73869e-07
8.21605e-12
-2.16724e-07
-9.13984e-12
5.93031e-08
-1.21947e-10
-3.51942e-13
-2.14126e-11
7.88607e-07
7.8836e-07
-4.91003e-07
4.91023e-07
-1.95383e-11
-9.80311e-07
6.76424e-07
-1.95311e-10
4.90564e-07
1.96772e-10
-4.90545e-07
4.72917e-07
4.73792e-07
-2.16667e-07
5.93032e-08
-7.68766e-11
-6.85316e-07
-2.86452e-07
-9.59947e-11
4.5647e-07
-1.10176e-11
4.86491e-07
4.50088e-07
-1.45007e-11
1.34472e-10
6.85266e-07
-9.00969e-11
2.86434e-07
1.63696e-07
-7.5895e-12
1.63562e-07
-1.61589e-11
4.56613e-07
2.95446e-07
-1.6357e-07
-1.79143e-11
-1.21019e-11
4.92555e-11
-2.95747e-07
-1.90582e-12
1.63698e-07
1.85296e-11
-1.01154e-11
-6.85217e-07
-2.8633e-07
-1.06224e-10
4.56311e-07
4.86443e-07
4.4989e-07
-2.91972e-07
1.41726e-10
6.851e-07
-7.46251e-11
2.86205e-07
1.63534e-07
1.6347e-07
4.56349e-07
2.95348e-07
-1.63467e-07
-2.69096e-11
2.99363e-11
-2.95635e-07
7.04009e-12
1.63526e-07
3.66808e-07
-3.34697e-07
5.10156e-11
-3.8123e-11
1.67703e-12
5.93081e-08
-5.07621e-08
1.05981e-07
1.39028e-11
4.04011e-12
-3.29541e-08
2.82592e-08
2.06449e-12
9.04933e-12
5.08452e-08
1.54856e-11
-1.0614e-07
3.01673e-12
3.79503e-12
-2.97439e-07
-1.2224e-07
-7.91322e-11
1.83112e-07
1.83571e-07
2.05913e-07
-1.09278e-11
2.97491e-07
3.70189e-12
1.22234e-07
8.36726e-08
8.36842e-08
1.83073e-07
-5.07428e-08
1.05974e-07
2.75482e-11
-3.29424e-08
2.82635e-08
4.68826e-09
-1.91249e-12
5.07647e-08
1.13939e-11
-1.06047e-07
3.14441e-08
3.15408e-08
4.50258e-07
2.91056e-07
9.62791e-11
-2.67658e-07
-4.96377e-13
-4.88051e-07
-2.91058e-07
-2.70507e-12
5.20506e-11
-4.50179e-07
1.39708e-12
-2.90852e-07
-1.99271e-12
-1.98082e-13
-2.67614e-07
-4.38844e-07
-3.08154e-07
-1.17503e-10
2.67656e-07
1.84804e-13
4.96131e-07
3.08158e-07
1.04658e-12
8.12372e-12
4.38738e-07
-3.19895e-12
3.07991e-07
5.97378e-13
6.62892e-14
2.67616e-07
-1.69508e-12
-6.88925e-14
4.50231e-07
2.9105e-07
9.52148e-11
-2.6764e-07
-4.87977e-07
-2.91052e-07
2.91944e-07
5.37046e-11
-4.50143e-07
1.93066e-12
-2.90843e-07
-2.67582e-07
-4.38849e-07
-3.0815e-07
-1.15768e-10
2.67638e-07
4.96068e-07
3.08154e-07
-3.69789e-07
5.95254e-12
4.38755e-07
-3.93591e-12
3.07986e-07
2.67583e-07
-1.6732e-12
-8.03735e-09
-7.12695e-08
-2.68361e-12
-1.51865e-12
2.31305e-08
8.0375e-09
-1.40936e-12
-5.30184e-13
8.00323e-09
-1.18923e-11
7.12702e-08
3.98037e-13
-3.06617e-12
6.78184e-09
-9.08112e-09
-5.05975e-13
-4.09907e-08
1.0758e-08
-6.07659e-09
-2.4982e-11
-6.77207e-09
-2.08539e-12
9.07879e-09
-1.51504e-08
-1.51594e-08
-4.10133e-08
-8.07303e-09
-7.12583e-08
2.40439e-12
2.32345e-08
7.944e-09
-3.11827e-08
-2.48321e-12
8.08297e-09
-1.00409e-11
7.1276e-08
-1.02283e-07
-1.02288e-07
6.13969e-07
2.75375e-07
6.19209e-11
-4.49184e-07
2.94292e-12
-4.13237e-07
-4.32085e-07
1.87447e-12
5.47463e-11
-6.13847e-07
-3.87679e-11
-2.75537e-07
-3.04475e-07
1.28182e-12
-3.04617e-07
6.44186e-12
-4.49127e-07
1.84556e-07
-3.30765e-07
-6.35886e-11
5.61237e-12
1.19958e-07
-1.19972e-07
-2.22785e-12
1.13875e-10
-1.84717e-07
-1.64837e-10
3.3133e-07
-2.22049e-07
1.0619e-11
-1.39215e-11
-2.22117e-07
6.13926e-07
2.75318e-07
7.05915e-11
-4.49094e-07