/*--------------------------------*- C++ -*----------------------------------*\
  =========                 |
  \\      /  F ield         | OpenFOAM: The Open Source CFD Toolbox
   \\    /   O peration     | Website:  https://openfoam.org
    \\  /    A nd           | Version:  7
     \\/     M anipulation  |
\*---------------------------------------------------------------------------*/
FoamFile
{
    version     2.0;
    format      ascii;
    class       volVectorField;
    location    "1";
    object      U;
}
// * * * * * * * * * * * * * * * * * * * * * * * * * * * * * * * * * * * * * //

dimensions      [0 1 -1 0 0 0 0];

internalField   nonuniform List<vector> 
1161
(
(0.13768 -0.00916831 0)
(0.159833 -0.00781067 0)
(0.182712 -0.00834438 2.76107e-23)
(0.209782 -0.0109272 0)
(0.246067 -0.0148092 3.94498e-23)
(0.293595 -0.0192623 1.61727e-22)
(0.352547 -0.0235685 -1.32369e-22)
(0.421365 -0.0268203 0)
(0.496057 -0.0273768 0)
(0.566828 -0.0218363 0)
(0.613246 -0.0067861 7.18844e-22)
(0.615069 0.0117095 -1.67078e-21)
(0.573385 0.0238674 0)
(0.509763 0.0255143 0)
(0.448757 0.0187485 0)
(0.407844 0.00555624 0)
(0.401517 -0.0160072 -1.18902e-21)
(0.455581 -0.0537677 -2.39875e-23)
(0.594184 -0.120023 0)
(0.675052 -0.180923 0)
(0.392341 -0.0351349 -2.86358e-24)
(0.428894 -0.0364287 -2.11451e-23)
(0.47466 -0.0443351 -7.75218e-23)
(0.532881 -0.058723 0)
(0.610334 -0.0774719 -7.90763e-23)
(0.709536 -0.0979561 1.26383e-22)
(0.82974 -0.117119 0)
(0.967206 -0.131167 0)
(1.11496 -0.133602 0)
(1.25764 -0.110614 -9.63939e-22)
(1.35857 -0.0455426 -1.90402e-21)
(1.37467 0.0376155 3.77742e-22)
(1.30373 0.0973022 1.86486e-21)
(1.18624 0.113388 -1.86482e-21)
(1.0682 0.0933336 0)
(0.9795 0.0481838 4.48523e-21)
(0.935502 -0.0197965 0)
(0.946693 -0.117174 -1.20307e-21)
(1.00026 -0.252544 -6.90701e-22)
(0.989956 -0.331508 6.73332e-22)
(0.590775 -0.0688681 8.28615e-24)
(0.62815 -0.0793462 -6.26133e-23)
(0.679071 -0.103082 5.28128e-23)
(0.746839 -0.138138 0)
(0.837853 -0.180831 -1.86157e-22)
(0.953842 -0.226037 -1.97889e-22)
(1.09266 -0.267461 0)
(1.24926 -0.298196 -2.31323e-21)
(1.41823 -0.30731 7.549e-21)
(1.5886 -0.266118 -6.36327e-21)
(1.71923 -0.121751 2.51705e-21)
(1.74047 0.070546 -4.90856e-21)
(1.64687 0.20992 -1.70246e-21)
(1.50329 0.250178 -8.1139e-21)
(1.36641 0.215177 8.53722e-21)
(1.26133 0.134184 -4.4865e-21)
(1.19311 0.0236798 1.26989e-22)
(1.15435 -0.106382 -2.29367e-21)
(1.11998 -0.234656 -2.45039e-21)
(1.05054 -0.248137 6.03351e-22)
(0.724083 -0.0988303 1.19412e-23)
(0.753317 -0.11938 -9.09998e-24)
(0.796386 -0.160814 -2.08105e-23)
(0.856863 -0.21823 4.58662e-22)
(0.939711 -0.285703 -1.47609e-22)
(1.04506 -0.355001 7.38887e-22)
(1.16787 -0.416137 -1.70031e-22)
(1.29949 -0.461315 1.04695e-21)
(1.43655 -0.483672 -2.86842e-21)
(1.58148 -0.445871 -2.72036e-07)
(1.71538 -0.21054 -1.80162e-07)
(1.7203 0.128283 8.33901e-07)
(1.59003 0.353697 6.19725e-07)
(1.452 0.395608 2.51814e-20)
(1.3462 0.334372 -8.54097e-21)
(1.27371 0.221475 8.92412e-21)
(1.22352 0.0855183 9.19812e-21)
(1.18035 -0.0525117 2.37787e-21)
(1.12389 -0.15821 -1.12689e-21)
(1.04976 -0.148186 5.65837e-22)
(0.796834 -0.117931 -2.46783e-24)
(0.811216 -0.147309 4.62007e-23)
(0.836823 -0.204561 -1.48674e-22)
(0.877412 -0.281604 -2.9762e-22)
(0.935477 -0.369519 4.2621e-22)
(1.00866 -0.455363 -6.55445e-22)
(1.08568 -0.522432 1.46169e-22)
(1.14502 -0.561257 -7.6884e-22)
(1.17484 -0.579262 -2.18941e-07)
(1.18193 -0.548514 -2.45194e-06)
(1.31172 -0.368764 0.0554794)
(1.29045 0.112494 0.07744)
(1.05339 0.490024 -6.11641e-07)
(1.05404 0.478435 6.5849e-07)
(1.06694 0.383824 -8.97103e-21)
(1.08594 0.253402 -1.34463e-20)
(1.10006 0.113084 4.53934e-21)
(1.09936 -0.0136288 -6.90447e-21)
(1.07387 -0.0939187 0)
(1.03053 -0.0781573 -5.69128e-22)
(0.821701 -0.121145 -7.30159e-24)
(0.816379 -0.157034 0)
(0.817525 -0.225707 2.08939e-22)
(0.828884 -0.316485 -3.57561e-22)
(0.850019 -0.416998 -2.85325e-22)
(0.876698 -0.506987 1.11963e-21)
(0.889519 -0.555371 5.63719e-08)
(0.842781 -0.543404 -1.46755e-07)
(0.706962 -0.470801 1.29976e-07)
(0.602187 -0.412712 0.0275548)
(0.469214 -0.261021 0.0357804)
(0.366085 0.324101 0.108307)
(0.547496 0.362334 -3.58445e-07)
(0.69996 0.295997 1.83343e-20)
(0.825037 0.188069 1.13543e-21)
(0.917771 0.0706863 0)
(0.978898 -0.0284623 3.47298e-21)
(1.00743 -0.078649 -2.31054e-21)
(1.0078 -0.0499059 5.68974e-22)
(0.817068 -0.105083 7.30037e-24)
(0.788856 -0.144016 -1.3833e-23)
(0.760796 -0.21756 4.03789e-23)
(0.736064 -0.313779 4.83335e-23)
(0.71187 -0.417321 3.13619e-22)
(0.686156 -0.498789 -9.26133e-22)
(0.634997 -0.500787 -5.65601e-08)
(0.574784 -0.448807 0.0112036)
(0.38082 -0.294074 0.014759)
(0.133847 -0.105616 0.0175533)
(0.027059 0.0587012 0.0992563)
(0.243222 0.149855 3.39348e-07)
(0.441104 0.118098 -7.16268e-23)
(0.618688 0.0456988 -5.69059e-21)
(0.762696 -0.0370654 3.98344e-21)
(0.873455 -0.101723 -1.15338e-21)
(0.950629 -0.118579 4.0381e-21)
(0.989198 -0.061817 -8.48002e-22)
(0.804528 -0.0684545 -1.60209e-23)
(0.752316 -0.105598 2.9221e-23)
(0.692646 -0.175521 -3.2763e-23)
(0.627263 -0.267253 4.3832e-23)
(0.552143 -0.364148 -2.76646e-23)
(0.474733 -0.428281 2.32764e-08)
(0.429211 -0.417026 0.00201494)
(0.275199 -0.258006 0.00456323)
(0.0426459 -0.0355116 0.00455561)
(0.00122089 -0.000981906 0.0735251)
(0.136121 -0.0396679 -1.49806e-06)
(0.327613 -0.0754085 -1.18182e-21)
(0.514765 -0.127846 0)
(0.677264 -0.181348 2.83271e-21)
(0.81212 -0.214186 0)
(0.916837 -0.198509 -5.75952e-22)
(0.978081 -0.101902 2.8226e-22)
(0.806608 -0.0121619 -1.38327e-23)
(0.732151 -0.0414439 1.45747e-23)
(0.641438 -0.0976643 5.73964e-24)
(0.534334 -0.174775 -3.28434e-22)
(0.408562 -0.261041 -3.24631e-08)
(0.279239 -0.313926 -1.71227e-08)
(0.209454 -0.276839 -0.00496053)
(0.0510349 -0.0692226 -0.000224039)
(0.00216669 -0.0135678 0.0699198)
(0.163574 -0.204069 -2.13494e-06)
(0.341406 -0.258156 0)
(0.516796 -0.301266 9.06415e-21)
(0.671852 -0.33268 -6.82226e-21)
(0.803714 -0.339192 4.48796e-21)
(0.909921 -0.294527 1.14751e-21)
(0.97514 -0.154331 -1.68494e-21)
(0.844574 0.0605695 -1.19026e-23)
(0.753328 0.0463446 1.01461e-23)
(0.635368 0.0156809 -5.73417e-24)
(0.485459 -0.0347615 0)
(0.307265 -0.106072 5.75153e-09)
(0.18598 -0.188168 -0.00900862)
(0.0842779 -0.14568 -0.0100383)
(0.0277081 -0.0558179 0.0857213)
(0.310974 -0.36739 -3.48974e-07)
(0.468065 -0.423905 9.28366e-21)
(0.615377 -0.454566 0)
(0.741387 -0.465964 -4.48507e-21)
(0.845673 -0.45017 -4.48245e-21)
(0.928402 -0.381584 1.12693e-21)
(0.979737 -0.203402 -8.70473e-24)
(0.936465 0.143485 3.55508e-24)
(0.838661 0.151845 7.92711e-24)
(0.703865 0.160817 -1.06138e-22)
(0.518364 0.153988 1.23064e-21)
(0.283136 0.104427 1.62172e-07)
(0.112446 -0.0322329 -0.0128258)
(0.020404 -0.0469151 -0.013532)
(0.451008 -0.412568 2.86142e-06)
(0.582052 -0.51519 7.01714e-07)
(0.695976 -0.556842 -2.27477e-21)
(0.794097 -0.568769 0)
(0.871673 -0.559563 -4.37281e-21)
(0.928566 -0.524014 0)
(0.967724 -0.437605 -5.49172e-22)
(0.990589 -0.235411 -5.53607e-22)
(1.09248 0.22605 -7.4776e-24)
(1.004 0.262132 1.74389e-23)
(0.873751 0.324598 -1.83539e-22)
(0.676663 0.387791 2.67512e-22)
(0.391229 0.395749 3.90016e-09)
(0.103415 0.175893 -0.0157894)
(0.00166788 0.000113842 -0.011906)
(0.217768 -0.11536 0.0937421)
(0.686379 -0.414507 6.83126e-07)
(0.823171 -0.549331 6.94409e-07)
(0.913463 -0.617638 1.07302e-20)
(0.976769 -0.637913 2.20113e-21)
(1.01853 -0.628584 -2.20216e-21)
(1.03835 -0.598311 4.37076e-21)
(1.03705 -0.544648 -1.59775e-21)
(1.02076 -0.446685 -5.36443e-22)
(1.0058 -0.240089 -1.0162e-21)
(1.30707 0.292916 0)
(1.24766 0.353293 0)
(1.15796 0.46871 1.32602e-22)
(1.01376 0.617512 -2.05338e-22)
(0.779248 0.746051 -5.71281e-08)
(0.313111 0.555767 -0.0133475)
(0.0970123 -0.0587208 0.077477)
(0.535269 -0.271645 0.0949446)
(0.976867 -0.477918 -1.35288e-06)
(1.12776 -0.574682 -6.83927e-07)
(1.2168 -0.643125 -1.11302e-20)
(1.25819 -0.670953 5.47556e-21)
(1.26749 -0.66324 0)
(1.25204 -0.62968 -2.13915e-21)
(1.21353 -0.577139 0)
(1.15298 -0.505723 2.13354e-21)
(1.07887 -0.401337 2.07187e-21)
(1.02299 -0.211648 1.01578e-21)
(1.54703 0.328277 0)
(1.53088 0.397353 5.3643e-24)
(1.51392 0.535278 -2.15175e-22)
(1.49911 0.725845 4.70798e-21)
(1.50317 0.926265 6.56824e-08)
(1.28576 0.955711 0.0209583)
(1.03645 0.31467 0.0367713)
(0.986602 -0.287698 0.0997136)
(1.34966 -0.469777 3.30792e-07)
(1.45849 -0.556576 4.27574e-21)
(1.53754 -0.611099 -2.18042e-20)
(1.58684 -0.653237 4.22293e-21)
(1.59857 -0.674179 8.54826e-21)
(1.57654 -0.666671 -4.34723e-21)
(1.52848 -0.631581 0)
(1.45893 -0.574129 2.24182e-23)
(1.36874 -0.499535 -1.04976e-21)
(1.25719 -0.410552 2.10242e-21)
(1.13276 -0.303152 -5.29815e-22)
(1.03961 -0.149411 -4.92857e-22)
(1.75085 0.325354 -1.38912e-22)
(1.77568 0.385133 1.27003e-22)
(1.82465 0.50487 8.23609e-23)
(1.91295 0.66292 0)
(2.0633 0.801384 -1.9974e-21)
(2.28393 0.685485 -4.05216e-07)
(2.37601 0.219417 9.39494e-07)
(2.2899 -0.200445 -5.8012e-07)
(2.14969 -0.4282 5.80547e-07)
(2.07369 -0.542365 0)
(2.02221 -0.60349 -4.10218e-21)
(1.96836 -0.630485 -4.17174e-21)
(1.89967 -0.628912 -8.43265e-21)
(1.81424 -0.599927 2.0656e-21)
(1.71439 -0.545878 0)
(1.60161 -0.470344 2.11699e-21)
(1.47479 -0.377305 -2.0958e-21)
(1.33017 -0.272031 7.09576e-24)
(1.17312 -0.162955 -1.03607e-21)
(1.05317 -0.0582983 0)
(1.85101 0.289307 0)
(1.90488 0.331007 -7.99156e-22)
(1.99088 0.413237 8.00674e-22)
(2.11728 0.51169 1.83144e-21)
(2.29632 0.573141 6.80215e-21)
(2.50565 0.481466 -6.8252e-21)
(2.63114 0.198278 6.01848e-21)
(2.61644 -0.10036 1.01074e-21)
(2.51753 -0.312236 2.62755e-21)
(2.40305 -0.439075 9.03019e-22)
(2.28743 -0.505635 0)
(2.16834 -0.52914 4.05744e-21)
(2.04309 -0.51943 0)
(1.91251 -0.481961 0)
(1.77887 -0.420135 -2.10664e-21)
(1.64321 -0.336001 2.1156e-21)
(1.50352 -0.231507 2.14402e-21)
(1.35317 -0.112804 -3.1591e-23)
(1.19111 -0.000429951 -5.46519e-22)
(1.0613 0.0527687 5.00621e-22)
(1.79299 0.230375 0)
(1.86465 0.253944 0)
(1.96666 0.300348 5.96033e-22)
(2.09842 0.351566 -4.72531e-22)
(2.26612 0.37197 -2.30445e-21)
(2.44519 0.305484 1.50205e-21)
(2.56562 0.135084 1.37688e-22)
(2.58324 -0.0601656 -2.66744e-21)
(2.51701 -0.215822 -1.69622e-21)
(2.4056 -0.31708 -4.50804e-21)
(2.27168 -0.370609 6.47861e-21)
(2.1262 -0.386786 -3.78981e-21)
(1.97618 -0.373821 4.06596e-21)
(1.82776 -0.336886 -6.12957e-21)
(1.68598 -0.278149 -2.12428e-21)
(1.55375 -0.196904 -2.1666e-21)
(1.4304 -0.0913024 5.36477e-23)
(1.30871 0.0350938 3.26857e-21)
(1.17911 0.155534 1.60866e-21)
(1.06222 0.171023 -5.26277e-22)
(1.54005 0.157896 1.66284e-22)
(1.62028 0.166214 -6.00555e-22)
(1.7244 0.185327 -1.53725e-22)
(1.84588 0.206342 3.21761e-21)
(1.98735 0.208876 -9.6627e-22)
(2.12836 0.165487 -3.65433e-21)
(2.22494 0.0695273 4.68647e-21)
(2.24611 -0.042802 0)
(2.19583 -0.135753 -3.21268e-21)
(2.09596 -0.196755 -4.8785e-22)
(1.96701 -0.227473 4.40288e-21)
(1.82413 -0.233726 0)
(1.67891 -0.220787 2.03174e-21)
(1.54064 -0.191736 2.12993e-21)
(1.41686 -0.146565 -5.32293e-21)
(1.31331 -0.0815323 4.31589e-21)
(1.23334 0.00994845 -2.19949e-21)
(1.1748 0.131748 -1.11565e-21)
(1.12206 0.265866 1.72868e-23)
(1.04767 0.282724 5.68744e-22)
(1.07423 0.0820897 0)
(1.15186 0.0790569 4.77777e-22)
(1.24238 0.080872 -4.19821e-22)
(1.33866 0.0856425 0)
(1.44292 0.0835583 -1.93559e-21)
(1.54054 0.0627857 -9.67776e-22)
(1.6042 0.0212925 9.67321e-22)
(1.61427 -0.0260679 0)
(1.57149 -0.064305 0)
(1.48958 -0.087813 1.93995e-21)
(1.38467 -0.0977236 -1.73035e-21)
(1.27045 -0.0971174 -4.84763e-22)
(1.15764 -0.0885514 -5.08298e-22)
(1.05487 -0.0730652 -2.64912e-21)
(0.969779 -0.0493503 2.09919e-21)
(0.910295 -0.012681 -3.18462e-23)
(0.886032 0.0459529 1.71336e-21)
(0.910022 0.139572 -1.16067e-21)
(0.975738 0.276606 -9.248e-22)
(0.980231 0.352754 -5.05647e-23)
(0.404636 0.0223003 2.47429e-23)
(0.455299 0.0184953 -8.01393e-23)
(0.503717 0.0164991 0)
(0.549753 0.0164994 4.92865e-22)
(0.597323 0.0156082 -5.78672e-22)
(0.639793 0.0107592 6.89512e-22)
(0.664731 0.00162967 0)
(0.663502 -0.00806033 3.38479e-22)
(0.637403 -0.0151719 -3.38264e-22)
(0.594253 -0.0187654 0)
(0.542528 -0.0194653 0)
(0.488976 -0.0182164 -5.02517e-22)
(0.438433 -0.0156475 1.46226e-21)
(0.394663 -0.0118288 1.55279e-21)
(0.361531 -0.00595927 -1.04308e-21)
(0.34481 0.00422034 0)
(0.356181 0.0233966 1.11864e-21)
(0.423536 0.0602358 -5.65474e-22)
(0.57532 0.126595 -1.79348e-22)
(0.668497 0.186075 5.29626e-22)
(1.32309 -0.142829 0.0676031)
(0.943699 -0.358611 0.0405087)
(0.57757 -0.0511862 0.0692448)
(1.31169 -0.368791 -0.0554844)
(1.3231 -0.142467 -0.0675746)
(0.943647 -0.358567 -0.0404902)
(0.57707 -0.0498052 -0.0688521)
(1.24322 0.3132 0.0914457)
(0.532253 0.062308 0.0718632)
(0.827161 0.336979 0.101341)
(1.29029 0.112801 -0.077425)
(1.24303 0.313367 -0.0914449)
(0.531209 0.062738 -0.0719933)
(0.826892 0.337015 -0.101347)
(0.488112 -0.337817 0.0279557)
(0.298842 -0.218967 0.0161546)
(0.60194 -0.412823 -0.0275576)
(0.487745 -0.3381 -0.0279978)
(0.298655 -0.218936 -0.0161581)
(0.192365 -0.0303262 0.0188977)
(0.469623 -0.261335 -0.0356916)
(0.193071 -0.0298675 -0.0189045)
(0.347712 0.252324 0.117101)
(0.0290502 0.0470235 0.0719812)
(0.34763 0.25223 -0.117127)
(0.0291379 0.0470617 -0.0715701)
(0.476328 0.381104 0.109965)
(0.1556 0.19457 0.102364)
(0.278761 0.273381 0.108727)
(0.366115 0.324097 -0.108292)
(0.476347 0.38112 -0.109966)
(0.155761 0.194656 -0.102262)
(0.278823 0.273428 -0.108691)
(0.228212 -0.170852 0.0163355)
(0.121902 -0.108063 0.00735903)
(0.380824 -0.294092 -0.0147572)
(0.228144 -0.170706 -0.0163319)
(0.121767 -0.108051 -0.00734803)
(0.133781 -0.105566 -0.0175509)
(0.0055769 0.0152893 0.0276362)
(0.00555903 0.0153159 -0.0274551)
(0.128802 0.148389 0.109608)
(0.00412976 0.00593855 0.0786765)
(0.0653374 0.0715387 0.111027)
(0.0269396 0.0585721 -0.0991507)
(0.128765 0.148391 -0.109596)
(0.00412554 0.00591874 -0.0787374)
(0.0653198 0.071532 -0.111003)
(0.116942 -0.10001 0.011005)
(0.0981762 -0.112816 -0.00277925)
(0.275178 -0.257986 -0.00456296)
(0.116912 -0.099997 -0.0110028)
(0.098168 -0.112793 0.00277765)
(0.0426162 -0.0355018 -0.00455475)
(0.0294813 -0.00326996 0.107472)
(0.00111205 -0.00964477 0.0702113)
(0.0258424 -0.0434337 0.105997)
(0.00122362 -0.000985966 -0.0735413)
(0.0294915 -0.0032665 -0.1074)
(0.00112625 -0.00967886 -0.0701855)
(0.02587 -0.0434521 -0.105894)
(0.119857 -0.15888 -0.000151634)
(0.12626 -0.199473 -0.00849799)
(0.0112631 -0.0244484 -0.00342327)
(0.209473 -0.276833 0.00495987)
(0.119856 -0.158809 0.000147554)
(0.126241 -0.199453 0.0084962)
(0.0112522 -0.0245112 0.00342499)
(0.0510272 -0.0691935 0.000222863)
(0.0393823 -0.100425 0.106238)
(0.0137272 -0.0344576 0.0799614)
(0.0688875 -0.145058 0.107693)
(0.00218549 -0.0135964 -0.0698991)
(0.0394121 -0.100441 -0.106173)
(0.0137213 -0.0343919 -0.0801866)
(0.0689044 -0.145049 -0.107719)
(0.0336634 -0.0685025 -0.0125537)
(0.0842635 -0.145641 0.0100387)
(0.0337233 -0.0684275 0.0125437)
(0.0802844 -0.0979193 0.113438)
(0.0802797 -0.0978811 -0.113411)
(0.137017 -0.224977 0.108751)
(0.147469 -0.216105 0.102996)
(0.223905 -0.295941 0.11042)
(0.0277346 -0.0558503 -0.085531)
(0.137017 -0.224971 -0.108729)
(0.147498 -0.216108 -0.102974)
(0.223916 -0.295952 -0.11041)
(0.0485712 -0.0619423 -0.0134907)
(0.0943084 0.0433533 -0.0138121)
(0.0261725 -0.0132712 -0.0153578)
(0.112418 -0.0322525 0.0128259)
(0.0485444 -0.061949 0.0134892)
(0.0942694 0.0433324 0.0138105)
(0.0261299 -0.0132807 0.0153563)
(0.00242631 -0.00827215 -0.0142741)
(0.0204793 -0.0468933 0.0134974)
(0.00240406 -0.00824194 0.0142714)
(0.0483649 -0.0185524 0.04054)
(0.209091 -0.126768 0.101561)
(0.0483049 -0.0184838 -0.0404658)
(0.209047 -0.126847 -0.101559)
(0.208218 -0.187353 0.106483)
(0.282837 -0.192062 0.0970633)
(0.372867 -0.289526 0.106587)
(0.208195 -0.187326 -0.106481)
(0.282759 -0.192065 -0.0970649)
(0.37283 -0.289519 -0.106588)
(0.0104115 0.0141169 -0.0181042)
(0.140117 0.308724 -0.0145106)
(0.00518701 0.0466711 -0.0213457)
(0.103384 0.175872 0.0157868)
(0.0103748 0.0141056 0.0181162)
(0.140085 0.308678 0.0145098)
(0.005191 0.0466203 0.0213499)
(0.00166083 0.00013655 0.0117853)
(0.190139 -0.102766 0.0941822)
(0.190163 -0.102836 -0.0941493)
(0.0856609 -0.0590155 0.0869811)
(0.257354 -0.14062 0.0927337)
(0.362324 -0.196258 0.0944091)
(0.0856376 -0.0589896 -0.0869877)
(0.25728 -0.140658 -0.0927409)
(0.362277 -0.196242 -0.0944068)
(0.384128 -0.216147 0.101004)
(0.474273 -0.25835 0.0975489)
(0.580222 -0.323792 0.10286)
(0.217725 -0.115257 -0.0937388)
(0.384114 -0.216157 -0.101004)
(0.474241 -0.258306 -0.0975492)
(0.58021 -0.323784 -0.10286)
(0.0193545 0.0847464 -0.0236413)
(0.668286 0.805569 0.00176193)
(0.421079 0.457356 0.0125638)
(0.313016 0.555707 0.0133448)
(0.0193506 0.0846668 0.0236523)
(0.6683 0.805577 -0.00176458)
(0.421292 0.457466 -0.0126501)
(0.273456 -0.106539 0.111931)
(0.273558 -0.106591 -0.111904)
(0.0404907 -0.0200044 0.0313911)
(0.379646 -0.1776 0.109155)
(0.466919 -0.206615 0.102997)
(0.0404731 -0.0199951 -0.0313941)
(0.379674 -0.177733 -0.109106)
(0.466824 -0.206611 -0.102999)
(0.389295 -0.196156 0.0970339)
(0.582894 -0.276825 0.100614)
(0.705781 -0.328747 0.100676)
(0.096982 -0.0586883 -0.0774759)
(0.389274 -0.196109 -0.0970295)
(0.582841 -0.276799 -0.100611)
(0.70576 -0.328724 -0.100676)
(0.900112 -0.144522 0.0947669)
(1.76305 0.314451 0.0702183)
(1.63627 -0.0207351 0.0878562)
(1.03602 0.314453 -0.0369)
(0.900248 -0.144517 -0.0947175)
(1.76302 0.314485 -0.0702195)
(1.63631 -0.0207033 -0.0878468)
(0.107274 -0.0650448 6.72855e-05)
(0.469824 -0.261444 -4.10424e-05)
(0.35773 -0.176017 0.040297)
(0.240826 -0.158414 0.0223395)
(0.357027 -0.175569 0.000159888)
(0.241629 -0.15892 -0.00016179)
(0.107016 -0.0649981 0.011885)
(0.179918 0.0822669 0.0434104)
(0.179691 0.0823853 -1.20726e-05)
(0.497883 -0.381145 0.0127113)
(0.433413 -0.36501 0.00636659)
(0.317452 -0.260785 0.00871284)
(0.574765 -0.448812 -0.0112038)
(0.497861 -0.381156 -0.012712)
(0.433382 -0.365003 -0.0063665)
(0.317398 -0.260785 -0.00871318)
(0.134061 -0.105858 1.67441e-05)
(0.0621365 -0.0382994 0.0113876)
(0.0458502 -0.0448644 0.00301982)
(0.062222 -0.0382935 2.35932e-05)
(0.0458665 -0.0450059 -1.99193e-05)
(0.0492803 0.0765081 3.17282e-05)
(0.0269219 0.0586508 -7.79238e-06)
(0.0722331 0.107593 0.115391)
(0.0184953 0.034501 0.0945198)
(0.0722244 0.107646 6.22785e-06)
(0.0185065 0.0345354 1.06224e-05)
(0.0492902 0.0765245 0.113148)
(0.369152 -0.358913 0.0035915)
(0.324057 -0.358274 -0.0021633)
(0.241375 -0.273052 -0.000352119)
(0.429212 -0.417015 -0.00201494)
(0.369145 -0.358894 -0.0035915)
(0.324067 -0.358262 0.00216321)
(0.241376 -0.273021 0.000352069)
(0.0425814 -0.0354655 1.16148e-05)
(0.00496296 -0.00737193 4.87604e-06)
(0.00121215 -0.000991118 -9.29886e-07)
(0.00693935 0.0012442 0.102476)
(0.000755548 -0.0038905 0.0716803)
(0.00693847 0.00123848 -4.08479e-06)
(0.000760174 -0.00388957 1.56322e-06)
(0.00495389 -0.00738798 0.0996859)
(0.0509975 -0.0691953 2.84477e-05)
(0.0209422 -0.0355677 -0.00222783)
(0.0209198 -0.0356319 -1.02397e-05)
(0.0132187 -0.0514335 -4.39995e-06)
(0.00217479 -0.013574 -6.82017e-07)
(0.00932458 -0.0413167 0.0971301)
(0.00358161 -0.0178587 0.0710835)
(0.00934491 -0.0413254 9.22087e-07)
(0.00358449 -0.0178501 -3.49655e-06)
(0.0132036 -0.0514441 0.0991773)
(0.128651 -0.186254 -0.00922134)
(0.14525 -0.125589 -0.0109716)
(0.0836535 -0.125281 -0.0112918)
(0.185979 -0.188174 0.00900895)
(0.128655 -0.186247 0.0092204)
(0.145248 -0.125604 0.0109716)
(0.0836746 -0.125282 0.0112897)
(0.0284043 -0.0646831 -1.30838e-05)
(0.0844115 -0.145785 9.09394e-06)
(0.0573569 -0.108688 -0.00803154)
(0.061055 -0.116715 -0.0118926)
(0.0573922 -0.108773 3.9951e-05)
(0.0610792 -0.116753 -2.03237e-05)
(0.028427 -0.064634 -0.0113308)
(0.0843036 -0.15058 1.7532e-05)
(0.0277411 -0.0558094 2.12496e-06)
(0.0635316 -0.118087 0.106077)
(0.0388112 -0.0835535 0.0990087)
(0.0635643 -0.118009 2.16022e-05)
(0.0387108 -0.0835141 -6.29585e-07)
(0.0843014 -0.150562 0.113926)
(0.00178564 -0.00802463 -1.07973e-05)
(0.0204689 -0.0469266 1.02982e-05)
(0.00658387 -0.0199744 -0.00824608)
(0.008448 -0.0273673 -0.016214)
(0.00660504 -0.0199702 1.71774e-05)
(0.00837894 -0.0273359 -2.89773e-05)
(0.00180745 -0.00801812 -0.00414346)
(0.126359 -0.103188 -4.24379e-05)
(0.049609 -0.0459068 0.0462848)
(0.0830349 -0.0586567 0.0723314)
(0.0496159 -0.0459894 2.48688e-07)
(0.0829738 -0.0586384 -6.58923e-06)
(0.126384 -0.103112 0.101206)
(0.00165293 0.000165481 -2.96784e-06)
(0.00092526 0.00421336 -0.0051728)
(0.000908509 0.0042211 2.07353e-06)
(0.0757255 -0.0413656 1.49718e-05)
(0.0335785 -0.0158762 0.0289959)
(0.0336389 -0.0158398 -1.40494e-05)
(0.0757723 -0.0414785 0.0712995)
(0.0454865 -0.0187374 -1.66765e-05)
(0.0454705 -0.0188262 0.0328827)
(0.295353 -0.163329 -6.14685e-05)
(0.0970274 -0.0588701 2.09088e-05)
(0.143588 -0.0793145 0.101156)
(0.237477 -0.137235 0.0988628)
(0.143452 -0.0793401 8.26394e-06)
(0.237385 -0.137401 -3.03172e-05)
(0.295381 -0.1632 0.107596)
(0.65608 -0.335759 0.101883)
(0.825774 -0.393513 0.0981668)
(0.912766 -0.441906 0.101997)
(0.535252 -0.271649 -0.0949417)
(0.656066 -0.335764 -0.101879)
(0.825759 -0.393511 -0.0981703)
(0.912756 -0.44191 -0.101998)
(1.22451 0.782788 0.0398966)
(1.71067 0.923248 0.0376157)
(1.75873 0.724741 0.0526312)
(1.28581 0.955667 -0.020954)
(1.22452 0.782558 -0.0399028)
(1.71068 0.923212 -0.037615)
(1.75871 0.724654 -0.0526348)
(1.21396 0.116993 -3.49445e-05)
(1.0391 0.314432 -0.000246624)
(0.818729 0.0697437 0.102177)
(1.31147 0.365404 0.0661567)
(0.821396 0.0683482 0.000379182)
(1.31245 0.365718 -4.32091e-05)
(1.21297 0.118488 0.0880973)
(1.0341 -0.348348 0.106803)
(1.55388 -0.256092 0.0935438)
(1.51028 -0.369116 0.10039)
(0.98668 -0.287761 -0.0996779)
(1.0341 -0.348384 -0.106787)
(1.55391 -0.256114 -0.0935414)
(1.51029 -0.369143 -0.10039)
(0.980131 -0.201749 -0.000105922)
(0.577887 -0.050244 0.000194629)
(0.925304 -0.052153 0.0719985)
(0.729935 -0.19171 0.0411537)
(0.925403 -0.0513775 5.64997e-05)
(0.73054 -0.191777 -0.000236282)
(0.979718 -0.20143 0.0585626)
(0.980161 -0.201515 9.65518e-05)
(0.577499 -0.0496577 -3.69694e-05)
(0.925097 -0.0511226 -0.0719693)
(0.729806 -0.191371 -0.0411764)
(0.925277 -0.0509207 2.64794e-05)
(0.730458 -0.191605 0.000178735)
(0.979791 -0.200992 -0.0585601)
(0.874048 0.175345 -1.57727e-05)
(0.531327 0.0628804 4.70931e-05)
(0.882326 0.0852202 0.0759485)
(0.541054 0.157615 0.0884829)
(0.881899 0.0857087 -3.05761e-05)
(0.540412 0.157845 -4.18912e-05)
(0.874247 0.175248 0.0903102)
(0.87381 0.175492 6.11036e-05)
(0.530856 0.0630987 -1.91007e-05)
(0.881756 0.0857114 -0.0759915)
(0.540445 0.157757 -0.0885378)
(0.881641 0.0859466 7.86735e-05)
(0.540135 0.157917 7.62257e-05)
(0.873733 0.175544 -0.0903571)
(0.177586 -0.160851 5.46474e-05)
(0.120717 -0.0987107 0.0140862)
(0.0660745 -0.0643443 0.00461815)
(0.120194 -0.0987659 -6.33247e-05)
(0.0659695 -0.0644921 -8.65901e-06)
(0.178074 -0.160686 0.0226763)
(0.177297 -0.160826 -0.000101718)
(0.119983 -0.0988171 -0.0140631)
(0.0659018 -0.0642757 -0.00461746)
(0.119789 -0.0988143 2.41738e-06)
(0.0658819 -0.0644535 3.89657e-06)
(0.177511 -0.16067 -0.0226506)
(0.192986 -0.0300009 6.13084e-05)
(0.326284 -0.105092 0.0227144)
(0.325905 -0.104517 -0.000209711)
(0.0512009 -0.0338189 0.00661698)
(0.0509845 -0.0336978 -5.39335e-05)
(0.107461 -0.0648651 2.16883e-05)
(0.469841 -0.261609 -7.31848e-05)
(0.357273 -0.174997 -0.0404063)
(0.241968 -0.159396 -0.0221438)
(0.35666 -0.17502 -0.000149002)
(0.242169 -0.15942 3.98951e-05)
(0.107389 -0.0646566 -0.0119279)
(0.193271 -0.0298482 1.42193e-05)
(0.325445 -0.104397 -0.0228064)
(0.325321 -0.104277 7.70063e-05)
(0.0505775 -0.0337693 -0.00645275)
(0.0506439 -0.0336755 -3.85196e-05)
(0.0729778 0.070329 8.33685e-06)
(0.347769 0.252617 -8.17393e-05)
(0.275656 0.182992 0.102557)
(0.141232 0.146928 0.119345)
(0.275486 0.183255 -5.47065e-05)
(0.141201 0.147053 4.46075e-05)
(0.0729624 0.0701388 0.0523341)
(0.0290721 0.0471517 -5.77153e-06)
(0.0615077 0.0776809 0.0929976)
(0.0615366 0.0776287 -3.87863e-05)
(0.179723 0.0822334 -0.0434338)
(0.179607 0.0823741 1.09695e-05)
(0.0729712 0.0703183 -8.28502e-06)
(0.347707 0.25258 8.84384e-05)
(0.275564 0.182933 -0.102595)
(0.141203 0.146786 -0.11937)
(0.275432 0.183228 6.05971e-05)
(0.141187 0.147015 -4.63369e-05)
(0.0729417 0.0700964 -0.0523428)
(0.0290966 0.0471624 -3.0865e-05)
(0.0615432 0.0775427 -0.0930316)
(0.0615506 0.0776033 2.46383e-05)
(0.181518 -0.157588 2.66397e-05)
(0.121696 -0.108089 -2.14262e-05)
(0.2273 -0.19532 0.012611)
(0.0771432 -0.0698644 0.00393944)
(0.227279 -0.195481 3.80806e-05)
(0.0770705 -0.0700455 -3.80651e-05)
(0.181609 -0.157335 0.0117261)
(0.113553 -0.0862545 5.35938e-06)
(0.0495968 -0.0316851 0.00892907)
(0.0307921 -0.0238109 0.00319541)
(0.0496679 -0.0316387 3.86681e-05)
(0.0308255 -0.0238504 -8.3234e-06)
(0.113424 -0.0861313 0.0131634)
(0.181512 -0.157641 -3.8417e-05)
(0.121626 -0.108081 1.06605e-05)
(0.22723 -0.19537 -0.012602)
(0.0770006 -0.0698923 -0.00392266)
(0.227241 -0.195502 -4.4769e-05)
(0.0769962 -0.0700578 2.09533e-05)
(0.181609 -0.157453 -0.0117091)
(0.113649 -0.0863577 -1.1559e-05)
(0.0496525 -0.0316377 -0.00894509)
(0.0307312 -0.0238582 -0.00317127)
(0.0496888 -0.0316076 -5.87538e-06)
(0.0307918 -0.0238732 -1.1013e-05)
(0.113642 -0.0863553 -0.0131422)
(0.133998 -0.105809 -2.0952e-05)
(0.0621056 -0.038282 -0.0113881)
(0.0458283 -0.0448438 -0.00301926)
(0.0621889 -0.0382751 -2.58717e-05)
(0.0458426 -0.0449813 1.84171e-05)
(0.00551601 0.0152962 7.49418e-06)
(0.00551168 0.0153013 -1.31763e-06)
(0.0266371 0.0418809 -2.3307e-06)
(0.00412209 0.00591585 4.03728e-06)
(0.00871722 0.0166378 0.0852662)
(0.0166528 0.0224161 0.10837)
(0.00869795 0.0166152 3.83245e-06)
(0.0166377 0.022383 6.06579e-06)
(0.0266606 0.0419632 0.111868)
(0.0492656 0.0765035 -2.04984e-05)
(0.0268999 0.0586299 2.98515e-05)
(0.0721374 0.107554 -0.115388)
(0.0184421 0.0344297 -0.0945638)
(0.0722222 0.107658 4.75312e-06)
(0.0184952 0.0345223 1.13002e-06)
(0.0492156 0.0764733 -0.113173)
(0.0266302 0.0418712 9.18646e-06)
(0.00412211 0.00591052 -1.67063e-06)
(0.00869831 0.0165953 -0.0852971)
(0.016645 0.0223926 -0.108394)
(0.00869408 0.0166065 1.55634e-06)
(0.0166383 0.022376 -2.21559e-06)
(0.0266245 0.0419146 -0.111888)
(0.11075 -0.100418 -3.0619e-05)
(0.11702 -0.100111 4.74286e-05)
(0.18869 -0.16529 0.00833607)
(0.0419183 -0.0367554 0.00297838)
(0.188866 -0.165441 1.58514e-05)
(0.0420065 -0.0368443 6.12736e-07)
(0.110676 -0.100373 0.00328308)
(0.103645 -0.1093 3.5431e-05)
(0.0982204 -0.112733 -5.23277e-05)
(0.165676 -0.178748 0.00139271)
(0.0362695 -0.0412538 6.46976e-05)
(0.165799 -0.178895 2.72427e-06)
(0.0363502 -0.0413242 -1.13691e-06)
(0.103624 -0.109228 0.00403764)
(0.0511541 -0.0497559 1.38079e-06)
(0.0511915 -0.0497942 0.00140585)
(0.110743 -0.100412 2.99774e-05)
(0.117002 -0.100101 -4.94085e-05)
(0.18866 -0.165274 -0.0083336)
(0.0419152 -0.0367544 -0.00297811)
(0.188847 -0.165429 -1.75295e-05)
(0.0420044 -0.036843 -9.28749e-07)
(0.110663 -0.100363 -0.00328237)
(0.103641 -0.109294 -3.46937e-05)
(0.0982149 -0.112721 5.38809e-05)
(0.165666 -0.178723 -0.00139391)
(0.0362681 -0.0412503 -6.50356e-05)
(0.165792 -0.178881 -1.63066e-06)
(0.0363493 -0.0413225 1.49674e-06)
(0.103617 -0.109218 -0.00403853)
(0.0511506 -0.0497524 -1.47728e-06)
(0.0511848 -0.0497875 -0.00140578)
(0.0425666 -0.0354601 -1.29148e-05)
(0.00452632 -0.019364 3.43653e-06)
(0.0011171 -0.00966144 -2.36935e-06)
(0.00072196 -0.00714988 0.0708888)
(0.00579511 -0.0270067 0.0971882)
(0.000728448 -0.00716898 9.72138e-07)
(0.00581373 -0.0270296 -3.24366e-06)
(0.0045126 -0.0193374 0.0982097)
(0.0049741 -0.00737855 -2.01694e-07)
(0.00121406 -0.000995235 2.97239e-06)
(0.00694856 0.00124725 -0.102466)
(0.000759902 -0.00390387 -0.0716464)
(0.0069472 0.0012376 8.66784e-06)
(0.000761571 -0.00389899 9.83927e-07)
(0.00496969 -0.00739567 -0.0996328)
(0.00453969 -0.019383 5.27727e-07)
(0.00112075 -0.00967274 5.51938e-07)
(0.000729517 -0.00718488 -0.0708621)
(0.00583308 -0.0270529 -0.0971216)
(0.000730183 -0.00718556 1.14099e-06)
(0.00582998 -0.0270464 2.48845e-06)
(0.0045366 -0.0193787 -0.0981495)
(0.119156 -0.175194 -2.03469e-05)
(0.119959 -0.158989 5.89697e-05)
(0.162626 -0.213351 -0.00287678)
(0.062668 -0.0994251 -0.00503461)
(0.162841 -0.213475 1.84777e-05)
(0.0626426 -0.0994152 -9.82486e-06)
(0.119075 -0.175158 -0.00606958)
(0.0805014 -0.127542 2.21613e-05)
(0.0112637 -0.024538 -1.20399e-05)
(0.0369621 -0.0615866 -0.00340946)
(0.039811 -0.0769769 -0.0113365)
(0.037009 -0.0615741 4.14428e-05)
(0.0397358 -0.0769455 -4.72929e-05)
(0.0803491 -0.127505 -0.00691478)
(0.119178 -0.175188 2.488e-05)
(0.119957 -0.158962 -5.48974e-05)
(0.162655 -0.213308 0.00287397)
(0.0626678 -0.0993484 0.00502422)
(0.162851 -0.213456 -1.56578e-05)
(0.0626443 -0.0993924 1.97171e-05)
(0.119133 -0.175138 0.00606315)
(0.0805277 -0.12756 -1.49929e-05)
(0.0112748 -0.0245804 4.05475e-06)
(0.036983 -0.0616006 0.00338146)
(0.0397265 -0.0769487 0.0113475)
(0.0370217 -0.0615871 -2.50314e-05)
(0.0397142 -0.076938 3.12115e-05)
(0.0804146 -0.127545 0.00690353)
(0.050994 -0.0691843 -2.72435e-05)
(0.0209339 -0.0355399 0.00222651)
(0.0209166 -0.0356218 1.18957e-05)
(0.0227665 -0.0681674 4.45587e-06)
(0.0137161 -0.0344219 -4.76782e-06)
(0.00676254 -0.0240989 0.0755464)
(0.0368193 -0.0842997 0.105627)
(0.0067623 -0.0240957 2.9383e-06)
(0.0368315 -0.0842153 -1.19558e-05)
(0.0227655 -0.0681718 0.103725)
(0.0132366 -0.0514543 1.42491e-06)
(0.00217993 -0.0135874 4.12706e-07)
(0.00936715 -0.0413542 -0.0970828)
(0.00360155 -0.0178733 -0.0710905)
(0.00935822 -0.0413411 1.0193e-06)
(0.00359061 -0.0178643 -1.61986e-06)
(0.0132501 -0.0514706 -0.099172)
(0.022773 -0.0681658 -5.10293e-06)
(0.0137141 -0.0344034 3.9776e-07)
(0.00676706 -0.0240923 -0.0756133)
(0.0368415 -0.0842505 -0.105809)
(0.00676372 -0.0240958 -2.62516e-06)
(0.036838 -0.0842002 8.93137e-06)
(0.0227844 -0.0681634 -0.103766)
(0.00758342 -0.0200217 -7.39412e-06)
(0.0221906 -0.048113 -0.00683513)
(0.0221021 -0.0480669 1.47583e-05)
(0.00761051 -0.0199798 -0.00393087)
(0.0197734 -0.0418139 1.09107e-05)
(0.0337364 -0.0684561 -1.10381e-06)
(0.0453113 -0.0864421 -0.0120272)
(0.0125779 -0.0290115 -0.00898049)