/*--------------------------------*- C++ -*----------------------------------*\
  =========                 |
  \\      /  F ield         | OpenFOAM: The Open Source CFD Toolbox
   \\    /   O peration     | Website:  https://openfoam.org
    \\  /    A nd           | Version:  7
     \\/     M anipulation  |
\*---------------------------------------------------------------------------*/
FoamFile
{
    version     2.0;
    format      ascii;
    class       volScalarField;
    location    "0.4";
    object      p;
}
// * * * * * * * * * * * * * * * * * * * * * * * * * * * * * * * * * * * * * //

dimensions      [0 2 -2 0 0 0 0];

internalField   nonuniform List<scalar> 
400
(
-0.00610059
-0.0183341
-0.0306111
-0.0429584
-0.0554213
-0.0680599
-0.0809514
-0.0942026
-0.10795
-0.122393
-0.137777
-0.154487
-0.173044
-0.194075
-0.219324
-0.248254
-0.291009
-0.326628
-0.425585
-0.565375
-0.00609426
-0.0183086
-0.0305733
-0.0429122
-0.0553665
-0.0679959
-0.0808761
-0.0941133
-0.107834
-0.122239
-0.137553
-0.154141
-0.172536
-0.193068
-0.218148
-0.24527
-0.289458
-0.326335
-0.439287
-0.456771
-0.00605415
-0.0181796
-0.0303496
-0.042581
-0.0549015
-0.0673581
-0.0800099
-0.092944
-0.106245
-0.120076
-0.134568
-0.149996
-0.16669
-0.18467
-0.205653
-0.226589
-0.255456
-0.275209
-0.306632
-0.319513
-0.00598779
-0.0179719
-0.0299834
-0.0420299
-0.0541218
-0.0662848
-0.0785501
-0.0909721
-0.103575
-0.116461
-0.12963
-0.14324
-0.157285
-0.171622
-0.186697
-0.200174
-0.214263
-0.220147
-0.222949
-0.210614
-0.00590838
-0.0177257
-0.0295464
-0.041367
-0.0531809
-0.0649893
-0.0767911
-0.0886014
-0.100384
-0.112169
-0.123836
-0.135428
-0.146656
-0.15729
-0.166976
-0.174035
-0.178474
-0.175247
-0.166263
-0.143479
-0.00582711
-0.0174746
-0.0290994
-0.0406863
-0.0522131
-0.0636571
-0.0749861
-0.0861765
-0.0971386
-0.107839
-0.118063
-0.127763
-0.136483
-0.143944
-0.149496
-0.151837
-0.150622
-0.142291
-0.129503
-0.10521
-0.00575224
-0.0172435
-0.0286879
-0.0400586
-0.0513202
-0.0624293
-0.0733264
-0.0839552
-0.0941834
-0.103928
-0.11291
-0.121022
-0.127731
-0.132745
-0.135372
-0.134557
-0.130175
-0.119352
-0.105703
-0.0826475
-0.0056902
-0.017052
-0.0283471
-0.0395386
-0.0505806
-0.0614133
-0.0719563
-0.0821278
-0.0917654
-0.10075
-0.108767
-0.11567
-0.120902
-0.124184
-0.124867
-0.122076
-0.115949
-0.104019
-0.0904046
-0.0689558
-0.00564595
-0.0169157
-0.0281045
-0.0391683
-0.0500537
-0.0606901
-0.070983
-0.0808334
-0.0900597
-0.0985213
-0.105882
-0.11198
-0.116251
-0.118439
-0.117946
-0.11402
-0.106979
-0.0946048
-0.0812119
-0.0609717
-0.00562304
-0.0168453
-0.0279793
-0.0389767
-0.0497807
-0.0603152
-0.0704787
-0.0801638
-0.0891797
-0.0973751
-0.104405
-0.110102
-0.113902
-0.115562
-0.114518
-0.110076
-0.102643
-0.0901222
-0.0768829
-0.0572616
-0.00562331
-0.0168465
-0.0279813
-0.0389788
-0.0497824
-0.0603166
-0.07048
-0.0801652
-0.0891809
-0.0973763
-0.104406
-0.110103
-0.113902
-0.115563
-0.114518
-0.110076
-0.102644
-0.0901227
-0.0768834
-0.0572622
-0.00564688
-0.0169196
-0.0281108
-0.0391745
-0.0500588
-0.0606942
-0.0709868
-0.0808373
-0.0900635
-0.0985247
-0.105885
-0.111982
-0.116253
-0.118441
-0.117948
-0.114021
-0.10698
-0.0946063
-0.0812132
-0.0609731
-0.0056919
-0.0170592
-0.0283579
-0.039549
-0.0505888
-0.06142
-0.0719627
-0.0821342
-0.0917716
-0.100756
-0.108771
-0.115674
-0.120905
-0.124187
-0.124869
-0.122078
-0.115952
-0.104022
-0.0904067
-0.068958
-0.00575484
-0.0172543
-0.0287035
-0.0400731
-0.0513316
-0.0624386
-0.0733352
-0.0839639
-0.0941918
-0.103935
-0.112917
-0.121027
-0.127735
-0.13275
-0.135375
-0.13456
-0.130178
-0.119355
-0.105705
-0.0826503
-0.00583052
-0.017489
-0.0291195
-0.0407045
-0.0522273
-0.0636688
-0.0749972
-0.0861876
-0.097149
-0.107848
-0.118071
-0.127769
-0.136489
-0.14395
-0.1495
-0.151841
-0.150625
-0.142294
-0.129507
-0.105213
-0.00591231
-0.0177425
-0.0295695
-0.0413879
-0.0531975
-0.0650033
-0.0768045
-0.0886146
-0.100396
-0.11218
-0.123845
-0.135435
-0.146663
-0.157296
-0.166981
-0.17404
-0.178478
-0.175251
-0.166267
-0.143483
-0.0059917
-0.0179887
-0.0300068
-0.0420517
-0.05414
-0.066301
-0.0785658
-0.0909872
-0.103589
-0.116473
-0.12964
-0.143249
-0.157293
-0.171629
-0.186703
-0.200179
-0.214268
-0.220152
-0.222953
-0.210618
-0.00605756
-0.0181938
-0.0303702
-0.0426019
-0.0549207
-0.0673763
-0.0800276
-0.0929608
-0.10626
-0.120089
-0.134579
-0.150006
-0.166699
-0.184677
-0.20566
-0.226595
-0.255461
-0.275214
-0.306637
-0.319518
-0.00609715
-0.0183191
-0.0305899
-0.0429314
-0.0553863
-0.0680156
-0.0808952
-0.094131
-0.10785
-0.122253
-0.137565
-0.154151
-0.172545
-0.193076
-0.218155
-0.245276
-0.289463
-0.32634
-0.439292
-0.456776
-0.00610321
-0.018343
-0.0306262
-0.0429776
-0.0554424
-0.068081
-0.0809714
-0.0942206
-0.107966
-0.122406
-0.137789
-0.154497
-0.173053
-0.194083
-0.21933
-0.248261
-0.291015
-0.326634
-0.42559
-0.565379
)
;

boundaryField
{
    movingWall
    {
        type            zeroGradient;
    }
    fixedWalls
    {
        type            zeroGradient;
    }
    frontAndBack
    {
        type            empty;
    }
    right
    {
        type            fixedValue;
        value           uniform 0;
    }
    left
    {
        type            zeroGradient;
    }
}


// ************************************************************************* //
