/*--------------------------------*- C++ -*----------------------------------*\
  =========                 |
  \\      /  F ield         | OpenFOAM: The Open Source CFD Toolbox
   \\    /   O peration     | Website:  https://openfoam.org
    \\  /    A nd           | Version:  7
     \\/     M anipulation  |
\*---------------------------------------------------------------------------*/
FoamFile
{
    version     2.0;
    format      ascii;
    class       surfaceScalarField;
    location    "0.4";
    object      phi;
}
// * * * * * * * * * * * * * * * * * * * * * * * * * * * * * * * * * * * * * //

dimensions      [0 3 -1 0 0 0 0];

internalField   nonuniform List<scalar> 
760
(
0.00146882
-2.31504e-07
0.00146927
-4.49967e-07
0.00147012
-8.46772e-07
0.00147151
-1.39576e-06
0.00147365
-2.13944e-06
0.00147681
-3.15582e-06
0.00148134
-4.53511e-06
0.0014877
-6.36105e-06
0.00149656
-8.85817e-06
0.00150875
-1.21909e-05
0.0015257
-1.69509e-05
0.00154917
-2.34706e-05
0.00158198
-3.28089e-05
0.00162971
-4.77242e-05
0.00169321
-6.35034e-05
0.00180493
-0.000111718
0.0019058
-0.000100876
0.00226459
-0.000358789
0.00214015
0.000124438
-0.00285985
0.00369664
-5.10998e-07
0.00369716
-9.69569e-07
0.00369817
-1.86128e-06
0.00369993
-3.15383e-06
0.00370271
-4.92075e-06
0.00370687
-7.32166e-06
0.00371292
-1.05773e-05
0.00372146
-1.48991e-05
0.00373337
-2.07729e-05
0.00374977
-2.85905e-05
0.00377238
-3.95602e-05
0.00380343
-5.452e-05
0.00384604
-7.54249e-05
0.00390644
-0.000108116
0.00398666
-0.000143731
0.00411801
-0.000243069
0.0042679
-0.000250761
0.00465137
-0.000742262
0.00489216
-0.000116346
-0.00296769
0.00494746
-7.33409e-07
0.00494783
-1.34109e-06
0.00494854
-2.57174e-06
0.00494981
-4.42328e-06
0.00495188
-6.98905e-06
0.00495503
-1.04695e-05
0.00495962
-1.51709e-05
0.00496614
-2.14181e-05
0.00497521
-2.98414e-05
0.00498766
-4.1042e-05
0.00500455
-5.64541e-05
0.00502745
-7.74131e-05
0.00505795
-0.000105927
0.00509939
-0.000149563
0.00515234
-0.000196673
0.00522451
-0.000315239
0.00530697
-0.000333224
0.00535619
-0.000791484
0.00552845
-0.000288606
-0.00243924
0.00549147
-8.68573e-07
0.00549167
-1.54124e-06
0.00549203
-2.92985e-06
0.00549267
-5.06901e-06
0.00549375
-8.06922e-06
0.00549543
-1.21442e-05
0.00549788
-1.76258e-05
0.00550137
-2.49069e-05
0.00550616
-3.46357e-05
0.00551267
-4.75496e-05
0.00552119
-6.49682e-05
0.00553229
-8.85214e-05
0.00554602
-0.000119652
0.00556237
-0.000165908
0.00558056
-0.000214869
0.00559132
-0.000326
0.00560488
-0.000346778
0.00552508
-0.000711685
0.00555502
-0.000318546
-0.00188422
0.00568147
-9.10444e-07
0.00568151
-1.5826e-06
0.00568156
-2.97959e-06
0.00568165
-5.15888e-06
0.00568182
-8.23987e-06
0.00568211
-1.24319e-05
0.00568254
-1.80513e-05
0.00568313
-2.55027e-05
0.00568387
-3.5375e-05
0.00568475
-4.84243e-05
0.0056855
-6.57188e-05
0.00568583
-8.88577e-05
0.00568486
-0.000118676
0.00568043
-0.000161482
0.00567171
-0.000206145
0.00564395
-0.000298248
0.00561525
-0.000318072
0.00549238
-0.000588819
0.00545538
-0.000281543
-0.00142884
0.005735
-8.67425e-07
0.0057349
-1.48303e-06
0.00573468
-2.76496e-06
0.0057343
-4.77622e-06
0.00573369
-7.63211e-06
0.00573278
-1.1522e-05
0.00573146
-1.67223e-05
0.00572955
-2.36004e-05
0.00572683
-3.26482e-05
0.00572294
-4.45358e-05
0.00571729
-6.00689e-05
0.00570901
-8.05767e-05
0.00569682
-0.000106485
0.00567779
-0.000142451
0.00565125
-0.000179606
0.0056034
-0.000250401
0.00555199
-0.00026666
0.00542372
-0.000460554
0.00536688
-0.000224696
-0.00106197
0.00574583
-7.52447e-07
0.00574561
-1.26227e-06
0.00574517
-2.3241e-06
0.00574438
-3.9936e-06
0.00574312
-6.36913e-06
0.0057412
-9.60609e-06
0.00573841
-1.3925e-05
0.00573443
-1.96225e-05
0.00572886
-2.70756e-05
0.00572113
-3.6807e-05
0.00571044
-4.93857e-05
0.00569565
-6.57819e-05
0.00567535
-8.619e-05
0.00564664
-0.000113735
0.00560899
-0.000141959
0.00555131
-0.000192721
0.00548908
-0.000204431
0.00536624
-0.000337709
0.00530671
-0.000165168
-0.000755256
0.0057458
-5.81231e-07
0.00574549
-9.44293e-07
0.00574486
-1.70033e-06
0.00574376
-2.88964e-06
0.00574197
-4.58355e-06
0.00573926
-6.89254e-06
0.0057353
-9.97028e-06
0.00572971
-1.40234e-05
0.00572194
-1.93057e-05
0.0057113
-2.61687e-05
0.00569688
-3.49726e-05
0.00567744
-4.63333e-05
0.00565157
-6.03255e-05
0.00561667
-7.88299e-05
0.00557237
-9.7661e-05
0.00550991
-0.000130266
0.00544309
-0.000137606
0.00532661
-0.000221229
0.00526932
-0.000107885
-0.000485931
0.00574405
-3.70993e-07
0.00574366
-5.57928e-07
0.00574291
-9.46965e-07
0.00574158
-1.55882e-06
0.00573942
-2.43118e-06
0.00573615
-3.62227e-06
0.0057314
-5.21213e-06
0.00572468
-7.30768e-06
0.00571541
-1.00371e-05
0.00570282
-1.35757e-05
0.00568594
-1.80964e-05
0.0056635
-2.38953e-05
0.00563417
-3.09907e-05
0.0055956
-4.0265e-05
0.00554759
-4.96508e-05
0.0054829
-6.55759e-05
0.00541436
-6.90582e-05
0.00530255
-0.000109422
0.00524786
-5.31986e-05
-0.000238068
0.0057429
-1.4024e-07
0.00574248
-1.35767e-07
0.00574165
-1.25705e-07
0.0057402
-1.09835e-07
0.00573786
-8.8992e-08
0.00573431
-6.53372e-08
0.00572914
-4.20331e-08
0.00572185
-2.25847e-08
0.00571182
-8.90509e-09
0.00569825
-1.36423e-09
0.00568015
2.60033e-09
0.00565625
2.33948e-09
0.00562526
5.36972e-09
0.00558499
-1.99279e-09
0.00553533
1.20146e-08
0.00546976
-1.00698e-08
0.00540069
1.43168e-08
0.00529127
-3.51048e-09
0.00523807
1.67304e-09
4.5391e-09
0.00574291
8.93469e-08
0.00574248
2.87996e-07
0.00574166
6.97675e-07
0.00574021
1.34118e-06
0.00573786
2.25478e-06
0.00573431
3.49266e-06
0.00572914
5.12871e-06
0.00572185
7.26284e-06
0.00571182
1.00194e-05
0.00569825
1.35729e-05
0.00568015
1.81016e-05
0.00565625
2.39e-05
0.00562526
3.10013e-05
0.00558499
4.0261e-05
0.00553533
4.96748e-05
0.00546976
6.55564e-05
0.00540069
6.90862e-05
0.00529127
0.000109415
0.00523807
5.32019e-05
0.000238077
0.00574408
3.03263e-07
0.00574369
6.80302e-07
0.00574293
1.45859e-06
0.00574159
2.67906e-06
0.00573943
4.41256e-06
0.00573616
6.76665e-06
0.0057314
9.88921e-06
0.00572468
1.39799e-05
0.00571541
1.92886e-05
0.00570282
2.61662e-05
0.00568594
3.49778e-05
0.0056635
4.63382e-05
0.00563417
6.03359e-05
0.0055956
7.88261e-05
0.0055476
9.76844e-05
0.0054829
0.000130248
0.00541436
0.000137633
0.00530255
0.000221222
0.00524786
0.000107889
0.00048594
0.00574588
4.86976e-07
0.00574554
1.01277e-06
0.00574491
2.09779e-06
0.00574379
3.79665e-06
0.00574199
6.20862e-06
0.00573927
9.48763e-06
0.00573531
1.38489e-05
0.00572971
1.9582e-05
0.00572194
2.70601e-05
0.0057113
3.68052e-05
0.00569689
4.93911e-05
0.00567744
6.57872e-05
0.00565157
8.62006e-05
0.00561667
0.000113732
0.00557237
0.000141982
0.00550991
0.000192706
0.00544309
0.000204456
0.00532661
0.000337703
0.00526932
0.000165171
0.000755264
0.00574595
6.301e-07
0.0057457
1.26143e-06
0.00574524
2.5644e-06
0.00574443
4.60063e-06
0.00574315
7.48787e-06
0.00574123
1.14152e-05
0.00573842
1.66541e-05
0.00573444
2.3565e-05
0.00572886
3.26357e-05
0.00572113
4.45356e-05
0.00571045
6.0075e-05
0.00569565
8.0583e-05
0.00567536
0.000106497
0.00564664
0.00014245
0.00560899
0.000179626
0.00555131
0.000250388
0.00548908
0.000266682
0.00536624
0.000460551
0.00530671
0.000224699
0.00106197
0.00573517
7.21358e-07
0.00573503
1.40444e-06
0.00573478
2.815e-06
0.00573437
5.01122e-06
0.00573374
8.11641e-06
0.00573282
1.23402e-05
0.00573148
1.79937e-05
0.00572957
2.54742e-05
0.00572684
3.53668e-05
0.00572294
4.84267e-05
0.00571729
6.5726e-05
0.00570901
8.88651e-05
0.00569682
0.000118688
0.00567779
0.000161483
0.00565125
0.000206164
0.0056034
0.000298239
0.00555199
0.000318092
0.00542372
0.000588817
0.00536688
0.000281547
0.00142885
0.00568167
7.44486e-07
0.00568165
1.41829e-06
0.00568166
2.8071e-06
0.00568172
4.95153e-06
0.00568187
7.96746e-06
0.00568214
1.20684e-05
0.00568256
1.75795e-05
0.00568315
2.48861e-05
0.00568388
3.46325e-05
0.00568475
4.75548e-05
0.0056855
6.49761e-05
0.00568584
8.85299e-05
0.00568486
0.000119665
0.00568043
0.000165912
0.00567171
0.000214885
0.00564395
0.000325994
0.00561525
0.000346796
0.00549238
0.000711685
0.00545538
0.00031855
0.00188423
0.00549165
6.78382e-07
0.00549179
1.27488e-06
0.00549211
2.48928e-06
0.00549273
4.3332e-06
0.00549379
6.90689e-06
0.00549545
1.04086e-05
0.00549789
1.51357e-05
0.00550137
2.14048e-05
0.00550616
2.98424e-05
0.00551267
4.10484e-05
0.00552119
5.64612e-05
0.00553229
7.74219e-05
0.00554602
0.00010594
0.00556236
0.000149568
0.00558056
0.000196686
0.00559132
0.000315234
0.00560488
0.00033324
0.00552508
0.000791483
0.00555502
0.00028861
0.00243925
0.0049476
5.08317e-07
0.00494793
9.47459e-07
0.00494861
1.81173e-06
0.00494985
3.08889e-06
0.0049519
4.85971e-06
0.00495503
7.2784e-06
0.00495961
1.05549e-05
0.00496612
1.48932e-05
0.00497519
2.07761e-05
0.00498764
2.85955e-05
0.00500454
3.95648e-05
0.00502743
5.4528e-05
0.00505794
7.54362e-05
0.00509938
0.000108121
0.00515233
0.000143738
0.0052245
0.000243066
0.00530697
0.000250773
0.00535619
0.00074226
0.00552845
0.000116351
0.0029677
0.00369676
2.44087e-07
0.00369726
4.48444e-07
0.00369825
8.2461e-07
0.00369997
1.36291e-06
0.00370272
2.11007e-06
0.00370686
3.13772e-06
0.00371289
4.52804e-06
0.00372142
6.361e-06
0.00373334
8.86068e-06
0.00374974
1.21928e-05
0.00377235
1.69528e-05
0.0038034
2.34752e-05
0.00384603
3.28145e-05
0.00390642
4.77262e-05
0.00398665
6.35057e-05
0.004118
0.000111717
0.00426789
0.000100881
0.00465137
0.000358788
0.00489215
-0.000124434
0.00285985
0.0014689
0.00146935
0.00147017
0.00147154
0.00147365
0.00147678
0.00148131
0.00148767
0.00149653
0.00150873
0.00152568
0.00154915
0.00158197
0.0016297
0.0016932
0.00180492
0.0019058
0.00226459
0.00214015
)
;

boundaryField
{
    movingWall
    {
        type            calculated;
        value           nonuniform 0();
    }
    fixedWalls
    {
        type            calculated;
        value           uniform 0;
    }
    frontAndBack
    {
        type            empty;
        value           nonuniform 0();
    }
    right
    {
        type            calculated;
        value           nonuniform List<scalar> 
20
(
-0.00146859
-0.00369636
-0.00494724
-0.00549133
-0.00568143
-0.00573504
-0.00574594
-0.00574598
-0.00574426
-0.00574313
-0.00574314
-0.0057443
-0.00574606
-0.0057461
-0.00573526
-0.00568169
-0.00549158
-0.00494743
-0.0036965
-0.00146866
)
;
    }
    left
    {
        type            calculated;
        value           nonuniform List<scalar> 
20
(
0.005
0.005
0.005
0.005
0.005
0.005
0.005
0.005
0.005
0.005
0.005
0.005
0.005
0.005
0.005
0.005
0.005
0.005
0.005
0.005
)
;
    }
}


// ************************************************************************* //
