/*--------------------------------*- C++ -*----------------------------------*\
  =========                 |
  \\      /  F ield         | OpenFOAM: The Open Source CFD Toolbox
   \\    /   O peration     | Website:  https://openfoam.org
    \\  /    A nd           | Version:  7
     \\/     M anipulation  |
\*---------------------------------------------------------------------------*/
FoamFile
{
    version     2.0;
    format      ascii;
    class       volVectorField;
    location    "0.4";
    object      U;
}
// * * * * * * * * * * * * * * * * * * * * * * * * * * * * * * * * * * * * * //

dimensions      [0 1 -1 0 0 0 0];

internalField   nonuniform List<vector> 
400
(
(0.293739 -2.71263e-05 0)
(0.293797 -5.35486e-05 0)
(0.293924 -9.64483e-05 0)
(0.294144 -0.000152298 0)
(0.29449 -0.000227944 0)
(0.295009 -0.000331881 0)
(0.295767 -0.000471804 0)
(0.296838 -0.000656757 0)
(0.298342 -0.000910809 0)
(0.300403 -0.00125446 0)
(0.303296 -0.00175046 0)
(0.307225 -0.00243901 0)
(0.312818 -0.00345701 0)
(0.320704 -0.00504281 0)
(0.331242 -0.00701728 0)
(0.35027 -0.0117127 0)
(0.363631 -0.0128444 0)
(0.424079 -0.0341374 0)
(0.475894 0.00348467 0)
(0.319584 -0.479636 0)
(0.739311 -7.46234e-05 0)
(0.739365 -0.000145572 0)
(0.73951 -0.000278512 0)
(0.739782 -0.000464935 0)
(0.740227 -0.000716483 0)
(0.740904 -0.00105901 0)
(0.74191 -0.0015243 0)
(0.743335 -0.00214094 0)
(0.745373 -0.00298143 0)
(0.748105 -0.00410045 0)
(0.752055 -0.00568788 0)
(0.757146 -0.0078511 0)
(0.764625 -0.0109283 0)
(0.774823 -0.0157691 0)
(0.787114 -0.0209691 0)
(0.814731 -0.0365861 0)
(0.821116 -0.0337667 0)
(0.923429 -0.122808 0)
(0.867221 0.0285647 0)
(1.12943 -0.617837 0)
(0.989488 -0.000122944 0)
(0.98952 -0.000231069 0)
(0.989619 -0.000446214 0)
(0.989813 -0.000766033 0)
(0.990142 -0.00120608 0)
(0.990647 -0.00180287 0)
(0.991415 -0.0026112 0)
(0.992484 -0.00368473 0)
(0.994075 -0.00513828 0)
(0.996076 -0.00706869 0)
(0.999199 -0.00975158 0)
(1.00271 -0.0134009 0)
(1.00855 -0.0184157 0)
(1.01513 -0.0262327 0)
(1.02373 -0.034447 0)
(1.04043 -0.0572196 0)
(1.0412 -0.0586682 0)
(1.09118 -0.157204 0)
(1.03547 -0.0554534 0)
(1.18109 -0.539139 0)
(1.09829 -0.000159146 0)
(1.09831 -0.000288496 0)
(1.09836 -0.000551953 0)
(1.09846 -0.000955998 0)
(1.09863 -0.00152091 0)
(1.09889 -0.00228802 0)
(1.09931 -0.00332224 0)
(1.09986 -0.00469632 0)
(1.10075 -0.00654049 0)
(1.1017 -0.00898984 0)
(1.10351 -0.0123244 0)
(1.10484 -0.0168488 0)
(1.10825 -0.0228995 0)
(1.10995 -0.0320667 0)
(1.11437 -0.0417771 0)
(1.11809 -0.065323 0)
(1.1143 -0.0695278 0)
(1.12956 -0.153009 0)
(1.07373 -0.0675633 0)
(1.16649 -0.43302 0)
(1.13629 -0.000177386 0)
(1.1363 -0.000313578 1.31717e-36)
(1.1363 -0.000593478 -1.31717e-36)
(1.13632 -0.00102981 0)
(1.13635 -0.00164605 0)
(1.13638 -0.00248459 0)
(1.13647 -0.00361068 0)
(1.13653 -0.00510549 0)
(1.13675 -0.00709395 0)
(1.13672 -0.00972897 0)
(1.13725 -0.0132497 0)
(1.13667 -0.0179903 0)
(1.13775 -0.0241732 0)
(1.13557 -0.0332208 0)
(1.13622 -0.0427684 0)
(1.13168 -0.0633445 0)
(1.12369 -0.0680837 0)
(1.12294 -0.131312 0)
(1.06939 -0.0634983 0)
(1.13518 -0.331897 0)
(1.147 -0.000177354 0)
(1.14699 -0.000308037 1.03817e-35)
(1.14696 -0.000577386 -1.03817e-35)
(1.1469 -0.00100055 0)
(1.14681 -0.00160158 0)
(1.14665 -0.00242062 0)
(1.14644 -0.00351729 0)
(1.14608 -0.00497008 0)
(1.14572 -0.00688784 0)
(1.14487 -0.00941643 0)
(1.14432 -0.0127432 0)
(1.14223 -0.0171688 0)
(1.14141 -0.0228189 0)
(1.13656 -0.0307968 0)
(1.13434 -0.0391391 0)
(1.12526 -0.0555191 0)
(1.11469 -0.0595726 0)
(1.10708 -0.105482 0)
(1.05851 -0.0522469 0)
(1.10974 -0.248557 0)
(1.14916 -0.000161425 0)
(1.14914 -0.000275791 1.27981e-36)
(1.14908 -0.000511575 -1.27981e-36)
(1.14896 -0.000883223 0)
(1.14877 -0.00141254 0)
(1.14845 -0.00213439 0)
(1.148 -0.00309878 0)
(1.14729 -0.00437307 0)
(1.14644 -0.00604474 0)
(1.14493 -0.00823513 0)
(1.14349 -0.0110821 0)
(1.14028 -0.014819 0)
(1.13801 -0.0195097 0)
(1.13137 -0.0259253 0)
(1.1272 -0.0325676 0)
(1.11564 -0.0447388 0)
(1.10389 -0.047738 0)
(1.09321 -0.0800196 0)
(1.04978 -0.0396389 0)
(1.09231 -0.180901 0)
(1.14915 -0.000132732 0)
(1.14913 -0.000221546 0)
(1.14904 -0.000404496 0)
(1.14887 -0.000693172 0)
(1.1486 -0.00110484 0)
(1.14815 -0.0016664 0)
(1.1475 -0.00241557 0)
(1.14652 -0.00340327 0)
(1.14529 -0.00469305 0)
(1.14329 -0.00637337 0)
(1.14118 -0.00853758 0)
(1.13715 -0.0113451 0)
(1.13386 -0.0148245 0)
(1.12604 -0.0194673 0)
(1.12064 -0.0242305 0)
(1.1077 -0.0325541 0)
(1.09552 -0.0345386 0)
(1.08342 -0.0559406 0)
(1.04403 -0.0275559 0)
(1.08123 -0.12344 0)
(1.1488 -9.46725e-05 0)
(1.14877 -0.000150744 0)
(1.14866 -0.000266021 0)
(1.14846 -0.000447927 0)
(1.14813 -0.000707526 0)
(1.14759 -0.00106189 0)
(1.14681 -0.0015346 0)
(1.14564 -0.00215732 0)
(1.14415 -0.00296856 0)
(1.14181 -0.00402143 0)
(1.13926 -0.0053695 0)
(1.13469 -0.00710382 0)
(1.13075 -0.00923452 0)
(1.12222 -0.0120317 0)
(1.1161 -0.0148807 0)
(1.10242 -0.0197187 0)
(1.09015 -0.0208282 0)
(1.07738 -0.0330655 0)
(1.04064 -0.0162 0)
(1.07474 -0.071983 0)
(1.14856 -5.0818e-05 0)
(1.14853 -6.95558e-05 4.99589e-36)
(1.14842 -0.000107759 -4.99589e-36)
(1.1482 -0.000167989 0)
(1.14784 -0.000254148 0)
(1.14725 -0.000372358 0)
(1.1464 -0.000531022 0)
(1.14514 -0.000741281 0)
(1.14352 -0.00101624 0)
(1.141 -0.00137361 0)
(1.13824 -0.00183049 0)
(1.1334 -0.00241639 0)
(1.12914 -0.00313262 0)
(1.12028 -0.00406664 0)
(1.11384 -0.00501167 0)
(1.09983 -0.00660054 0)
(1.08756 -0.00695245 0)
(1.07453 -0.0109388 0)
(1.03909 -0.00534255 0)
(1.07175 -0.0236677 0)
(1.14857 -4.86031e-06 0)
(1.14853 1.54306e-05 0)
(1.14842 5.75774e-05 0)
(1.1482 0.000124072 0)
(1.14784 0.000218535 0)
(1.14725 0.000346202 0)
(1.1464 0.000514186 0)
(1.14514 0.000732231 0)
(1.14352 0.00101268 0)
(1.141 0.00137306 0)
(1.13824 0.00183152 0)
(1.1334 0.00241731 0)
(1.12914 0.00313475 0)
(1.12028 0.00406589 0)
(1.11384 0.00501652 0)
(1.09983 0.00659647 0)
(1.08756 0.00695811 0)
(1.07453 0.0109374 0)
(1.03909 0.0053432 0)
(1.07175 0.0236695 0)
(1.1488 3.92895e-05 0)
(1.14877 9.72711e-05 0)
(1.14867 0.000216757 0)
(1.14847 0.000404901 0)
(1.14813 0.000672605 0)
(1.14759 0.00103621 0)
(1.14681 0.00151805 0)
(1.14564 0.00214841 0)
(1.14415 0.00296502 0)
(1.14181 0.00402086 0)
(1.13926 0.00537052 0)
(1.13469 0.00710478 0)
(1.13075 0.00923662 0)
(1.12222 0.0120309 0)
(1.1161 0.0148854 0)
(1.10242 0.0197149 0)
(1.09015 0.0208338 0)
(1.07738 0.0330642 0)
(1.04064 0.0162007 0)
(1.07475 0.0719848 0)
(1.14916 7.8492e-05 0)
(1.14914 0.000169715 0)
(1.14905 0.000357245 0)
(1.14888 0.000652051 0)
(1.1486 0.00107141 0)
(1.14815 0.00164176 0)
(1.14751 0.0023997 0)
(1.14652 0.00339474 0)
(1.14529 0.00468969 0)
(1.14329 0.00637289 0)
(1.14119 0.00853865 0)
(1.13715 0.0113462 0)
(1.13386 0.0148265 0)
(1.12604 0.0194665 0)
(1.12064 0.0242351 0)
(1.1077 0.0325508 0)
(1.09552 0.0345438 0)
(1.08342 0.0559394 0)
(1.04402 0.0275566 0)
(1.08123 0.123442 0)
(1.14917 0.000110769 0)
(1.14916 0.000227824 0)
(1.1491 0.000468205 0)
(1.14898 0.000845503 0)
(1.14878 0.00138177 0)
(1.14845 0.00211166 0)
(1.148 0.0030842 0)
(1.14729 0.00436535 0)
(1.14644 0.00604185 0)
(1.14493 0.0082349 0)
(1.14349 0.0110832 0)
(1.14028 0.0148201 0)
(1.13801 0.0195117 0)
(1.13137 0.0259248 0)
(1.1272 0.032572 0)
(1.11564 0.044736 0)
(1.10388 0.0477427 0)
(1.09321 0.0800187 0)
(1.04978 0.0396396 0)
(1.09231 0.180903 0)
(1.14702 0.000134156 0)
(1.14701 0.000267133 -1.03894e-35)
(1.14698 0.000540207 1.03894e-35)
(1.14692 0.000967874 0)
(1.14682 0.00157465 0)
(1.14666 0.00240069 0)
(1.14645 0.00350464 0)
(1.14609 0.00496363 0)
(1.14572 0.00688571 0)
(1.14487 0.00941661 0)
(1.14432 0.0127445 0)
(1.14224 0.01717 0)
(1.14141 0.0228212 0)
(1.13657 0.0307968 0)
(1.13434 0.0391432 0)
(1.12526 0.0555168 0)
(1.11469 0.0595769 0)
(1.10708 0.105482 0)
(1.05851 0.0522476 0)
(1.10974 0.248558 0)
(1.13632 0.000145809 0)
(1.13632 0.000282937 0)
(1.13633 0.000564444 0)
(1.13634 0.00100326 0)
(1.13636 0.00162362 0)
(1.13639 0.00246793 0)
(1.13647 0.00360032 0)
(1.13653 0.00510057 0)
(1.13675 0.00709279 0)
(1.13672 0.00972972 0)
(1.13725 0.0132512 0)
(1.13667 0.0179919 0)
(1.13775 0.0241758 0)
(1.13558 0.0332213 0)
(1.13622 0.0427719 0)
(1.13168 0.0633427 0)
(1.12369 0.0680875 0)
(1.12295 0.131312 0)
(1.06939 0.0634991 0)
(1.13519 0.331899 0)
(1.09831 0.000141804 0)
(1.09833 0.00026996 0)
(1.09838 0.000531801 0)
(1.09847 0.000935548 0)
(1.09864 0.00150269 0)
(1.0989 0.00227438 0)
(1.09931 0.00331406 0)
(1.09986 0.00469289 0)
(1.10076 0.00654029 0)
(1.1017 0.00899109 0)
(1.10351 0.012326 0)
(1.10484 0.0168506 0)
(1.10824 0.0229022 0)
(1.10995 0.0320676 0)
(1.11437 0.04178 0)
(1.11809 0.0653218 0)
(1.1143 0.0695312 0)
(1.12956 0.153009 0)
(1.07373 0.0675641 0)
(1.16649 0.433021 0)
(0.989504 0.000118947 0)
(0.98954 0.000223899 0)
(0.989637 0.000434242 0)
(0.989826 0.000751052 0)
(0.990149 0.00119168 0)
(0.990649 0.00179212 0)
(0.991413 0.00260516 0)
(0.992482 0.00368272 0)
(0.994072 0.00513879 0)
(0.996072 0.00706997 0)
(0.999196 0.0097528 0)
(1.00271 0.0134026 0)
(1.00854 0.0184183 0)
(1.01513 0.0262339 0)
(1.02373 0.0344492 0)
(1.04043 0.0572188 0)
(1.04119 0.058671 0)
(1.09119 0.157204 0)
(1.03547 0.055454 0)
(1.18109 0.53914 0)
(0.739329 7.79606e-05 0)
(0.739385 0.000145171 0)
(0.739529 0.000272258 0)
(0.739795 0.00045504 0)
(0.740233 0.000706954 0)
(0.740903 0.0010526 0)
(0.741905 0.00152144 0)
(0.743328 0.00214062 0)
(0.745366 0.00298224 0)
(0.748099 0.00410117 0)
(0.752049 0.00568848 0)
(0.757141 0.00785248 0)
(0.764621 0.0109301 0)
(0.77482 0.0157699 0)
(0.787112 0.02097 0)
(0.814729 0.0365856 0)
(0.821113 0.0337684 0)
(0.92343 0.122808 0)
(0.867217 -0.0285639 0)
(1.12943 0.617839 0)
(0.293754 2.90294e-05 0)
(0.293813 5.32915e-05 0)
(0.293938 9.33924e-05 0)
(0.294153 0.000148278 0)
(0.294492 0.000224966 0)
(0.295006 0.000330589 0)
(0.295761 0.000471707 0)
(0.296832 0.000657119 0)
(0.298337 0.000911115 0)
(0.300398 0.00125459 0)
(0.303291 0.00175074 0)
(0.30722 0.00243963 0)
(0.312816 0.00345752 0)
(0.320702 0.00504285 0)
(0.33124 0.00701731 0)
(0.350268 0.0117126 0)
(0.363629 0.0128449 0)
(0.424078 0.0341374 0)
(0.475891 -0.00348405 0)
(0.319587 0.479635 0)
)
;

boundaryField
{
    movingWall
    {
        type            fixedValue;
        value           nonuniform 0();
    }
    fixedWalls
    {
        type            noSlip;
    }
    frontAndBack
    {
        type            empty;
    }
    right
    {
        type            zeroGradient;
    }
    left
    {
        type            fixedValue;
        value           uniform (1 0 0);
    }
}


// ************************************************************************* //
