/*--------------------------------*- C++ -*----------------------------------*\
  =========                 |
  \\      /  F ield         | OpenFOAM: The Open Source CFD Toolbox
   \\    /   O peration     | Website:  https://openfoam.org
    \\  /    A nd           | Version:  7
     \\/     M anipulation  |
\*---------------------------------------------------------------------------*/
FoamFile
{
    version     2.0;
    format      ascii;
    class       volScalarField;
    location    "1";
    object      p;
}
// * * * * * * * * * * * * * * * * * * * * * * * * * * * * * * * * * * * * * //

dimensions      [0 2 -2 0 0 0 0];

internalField   nonuniform List<scalar> 
1161
(
-0.0121572
-0.838145
-2.04181
-3.45301
-5.15606
-7.28724
-10.0001
-13.445
-17.7193
-22.7452
-28.4215
-34.3704
-39.6679
-43.905
-47.1476
-49.7342
-52.0685
-54.5944
-58.3633
-67.847
-0.121637
-1.0539
-2.34378
-3.82197
-5.60425
-7.84321
-10.693
-14.2969
-18.7391
-23.9031
-29.7107
-35.5264
-40.3794
-43.9571
-46.6536
-48.9227
-51.0689
-53.2899
-55.7082
-57.6718
-0.152524
-1.05445
-2.29823
-3.72651
-5.48295
-7.76001
-10.7623
-14.6921
-19.6743
-25.6279
-32.4926
-38.993
-43.2338
-45.4447
-46.8563
-48.1038
-49.3059
-50.3838
-51.1808
-50.8404
-0.152556
-0.918427
-1.98911
-3.26629
-4.92181
-7.19882
-10.3724
-14.7262
-20.5411
-28.1521
-37.5931
-45.3434
-48.2185
-48.1381
-47.7177
-47.5714
-47.6656
-47.8876
-47.9808
-47.6139
-0.132827
-0.682527
-1.47201
-2.50675
-3.99244
-6.22558
-9.51191
-14.0331
-19.9352
-28.2979
-39.4073
-51.4928
-53.661
-50.9191
-48.9648
-47.5736
-46.7434
-46.4735
-46.5609
-47.3599
-0.0937735
-0.368689
-0.796481
-1.5025
-2.73233
-4.84233
-8.13
-12.4816
-16.5653
-23.0171
-32.637
-57.9
-52.7008
-49.7006
-47.6544
-46.3281
-45.7362
-45.7174
-47.8738
-0.040668
-0.00428389
-0.0166122
-0.306219
-1.14137
-2.91583
-6.00578
-9.8986
-13.6765
-17.2315
-55.9349
-51.9772
-49.6851
-47.7137
-46.2597
-45.5278
-45.5926
-48.448
0.017283
0.385127
0.824058
1.03926
0.788844
-0.269677
-3.39554
-6.88455
-10.8575
-52.9221
-51.3051
-49.6949
-47.9553
-46.5431
-45.8013
-46.2202
-48.9558
0.0783197
0.779798
1.69359
2.49286
2.94477
2.59882
0.710854
-3.45835
-52.1897
-51.5855
-50.116
-48.4901
-47.0898
-46.2507
-46.7833
-48.7083
0.141583
1.14623
2.52426
3.95273
5.40202
5.5545
4.7564
-53.8064
-52.5627
-50.8241
-49.0851
-47.4976
-46.2261
-46.1596
-46.5805
0.193826
1.40086
3.13912
5.07876
7.33007
8.87512
9.08785
-55.3968
-53.2876
-51.286
-49.2015
-47.0913
-44.9042
-43.4582
-41.7191
0.20237
1.40438
3.29009
5.54908
8.41147
11.4504
13.7625
-63.0043
-58.986
-55.9929
-53.4603
-50.9969
-48.2876
-45.2696
-41.6987
-38.3008
-33.9348
0.0442299
0.695382
1.80537
2.73692
3.44069
6.27555
-77.4333
-69.3163
-63.0009
-59.051
-55.7706
-52.7658
-49.6682
-46.1163
-41.9522
-36.7902
-31.2805
-24.2875
-0.286163
-0.651083
-1.14824
-3.29818
-9.52518
-21.1069
-74.1602
-84.5731
-71.842
-65.709
-61.2779
-57.5839
-54.2411
-50.9021
-47.2824
-43.026
-37.9243
-31.505
-24.3427
-15.3298
-0.731001
-2.26665
-4.55462
-9.05519
-17.676
-31.6765
-51.5761
-63.6327
-63.8455
-60.1674
-56.7816
-53.929
-51.1015
-47.9813
-44.3949
-40.0582
-34.7671
-28.0075
-20.2536
-10.3749
-1.13957
-3.61555
-7.06484
-12.1195
-19.2827
-28.5883
-41.1423
-50.7811
-53.8204
-52.933
-51.2164
-49.4896
-47.5378
-45.1354
-42.1958
-38.5278
-33.9722
-28.0155
-21.0149
-11.7413
-1.41541
-4.47437
-8.46357
-13.4236
-19.4729
-26.477
-34.6351
-41.5951
-45.3361
-46.3882
-46.2479
-45.6534
-44.667
-43.2161
-41.2944
-38.8172
-35.7041
-31.5134
-26.5804
-19.4862
-1.54858
-4.94311
-9.13382
-13.8842
-19.1384
-24.7376
-30.5652
-35.8432
-39.6134
-41.7581
-42.7904
-43.1502
-43.009
-42.433
-41.5069
-40.2684
-38.764
-36.7668
-34.5571
-30.6204
-1.57578
-5.14809
-9.3524
-13.8866
-18.6603
-23.561
-28.4352
-33.0079
-36.7767
-39.5085
-41.2701
-42.2585
-42.6549
-42.6054
-42.2557
-41.7397
-41.2316
-40.7896
-40.9928
-41.1381
-1.5079
-5.09421
-9.19623
-13.5909
-18.2274
-23.019
-27.8603
-32.4462
-36.4467
-39.5703
-41.7281
-43.01
-43.5798
-43.6074
-43.2603
-42.7014
-42.112
-41.7755
-42.7818
-49.7546
-47.0369
-37.2693
-59.376
-39.41
-47.0522
-37.2702
-59.5198
-53.3179
-62.4209
-60.9497
-51.5059
-53.3273
-62.4394
-60.9597
-25.8602
-18.1589
-23.0073
-25.8433
-18.1484
-56.7421
-32.6099
-57.0648
-61.8231
-61.4692
-61.8261
-61.4651
-55.4351
-57.7964
-56.3615
-57.9024
-55.4362
-57.7976
-56.3626
-15.1469
-9.74219
-13.6756
-15.1507
-9.73512
-17.2275
-58.0338
-58.0171
-54.2754
-53.853
-53.914
-55.9322
-54.2756
-53.8536
-53.9145
-10.5758
-2.72237
-6.8841
-10.574
-2.72355
-10.8551
-52.634
-52.0932
-52.3593
-52.9253
-52.635
-52.0918
-52.3598
-2.72954
2.86316
3.94262
0.709649
-2.73384
2.86359
3.96383
-3.46017
-52.4862
-53.2428
-52.6634
-52.1887
-52.4866
-53.2414
-52.6635
7.83703
4.75536
7.82536
-56.0193
-56.0201
-53.8647
-54.2036
-53.7919
-53.809
-53.8651
-54.2036
-53.7922
9.43122
9.60697
10.7677
8.87665
9.43381
9.60942
10.7709
12.529
9.06985
12.5292
-61.2058
-60.2547
-61.2036
-60.2554
-58.178
-58.1376
-57.3404
-58.1779
-58.1377
-57.3405
12.8663
9.87479
16.037
11.4536
12.8696
9.87844
16.0404
13.7528
-70.6296
-70.6312
-66.0077
-68.5963
-65.9322
-66.0078
-68.5969
-65.9329
-62.3818
-62.6438
-61.2849
-63.0043
-62.382
-62.6441
-61.2851
15.7641
-5.45393
-29.3592
6.28111
15.7718
-5.45306
-29.4555
-99.2965
-99.2975
-78.4334
-92.2959
-82.5636
-78.4344
-92.3058
-82.5658
-72.4699
-75.6316
-72.5124
-77.4332
-72.4705
-75.6324
-72.5131
-87.0446
-61.5323
-73.0221
-74.1996
-87.0397
-61.5298
-73.0214
-31.8819
-32.6683
-38.109
-27.1537
-38.277
-27.0534
-31.7756
-66.9251
-66.9174
-11.5305
-8.137
-9.88139
-9.898
-11.5295
-8.13621
-9.87944
-17.2528
-21.7324
-12.2049
-21.7799
-12.1681
-55.3574
-55.9142
-55.4911
-55.5916
-55.484
-55.5996
-55.3443
-4.92772
-1.40837
-2.97789
-3.39594
-4.92798
-1.40915
-2.97889
-10.8843
-52.6089
-52.9216
-52.9337
-52.4513
-52.9325
-52.4531
-52.6038
-3.50646
1.20145
1.24357
-52.4723
-52.1896
-52.353
-52.3698
-52.3552
-52.3699
-52.4712
5.57701
7.1312
7.42335
5.55408
5.57629
7.13111
7.42215
6.52927
4.74688
3.67281
6.44112
3.62731
6.45761
6.5083
-53.9276
-53.812
-53.7813
-54.0018
-53.7876
-53.9966
-53.9278
11.4978
9.07398
8.74612
11.3084
8.70785
11.3452
11.4563
-58.0687
-58.8152
-58.166
-58.8188
-58.1549
-58.0793
13.7568
15.1719
15.1701
-67.241
-67.9383
-67.919
-67.2437
-86.19
-86.2218
-74.7139
-77.4293
-75.8499
-76.5947
-75.864
-76.5717
-74.756
-68.123
-68.7154
-66.2761
-69.317
-68.1236
-68.7158
-66.2764
-47.5586
-28.8006
-43.3811
-21.1087
-47.5631
-28.8015
-43.3815
-81.5061
-73.9327
-109.877
-72.2075
-110.484
-72.1718
-81.5772
-82.2989
-76.1921
-74.754
-84.5764
-82.3005
-76.1937
-74.7548
-46.1365
-59.5508
-54.1793
-42.8738
-54.2044
-42.6999
-46.2151
-46.1511
-59.6129
-54.2381
-42.8934
-54.2309
-42.7202
-46.2451
-56.9418
-62.4691
-55.968
-61.2577
-55.9299
-61.2103
-56.9789
-56.9514
-62.4805
-55.9963
-61.2767
-55.9408
-61.2181
-57.003
-21.6461
-21.2845
-15.813
-21.1927
-15.7965
-21.5891
-21.6334
-21.2183
-15.802
-21.1718
-15.7946
-21.5566
-56.9931
-39.0347
-38.8902
-25.9054
-25.8217
-31.9828
-32.6414
-38.1563
-27.101
-38.296
-27.0187
-31.966
-57.1324
-39.0254
-38.8782
-25.6939
-25.7073
-66.9678
-61.7708
-64.405
-64.025
-64.3693
-64.0393
-66.9681
-61.4875
-61.6938
-61.677
-66.9189
-66.9126
-66.9673
-61.7732
-64.4074
-64.0249
-64.37
-64.0407
-66.9667
-61.4893
-61.6939
-61.6793
-12.5396
-9.72899
-11.8567
-9.18389
-11.8926
-9.13484
-12.5081
-13.7368
-17.0955
-12.3065
-17.153
-12.3044
-13.7288
-12.5363
-9.72568
-11.8529
-9.16813
-11.8908
-9.12692
-12.5015
-13.7334
-17.1421
-12.2627
-17.1759
-12.2813
-13.723
-17.2494
-21.7273
-12.2014
-21.775
-12.1659
-58.0165
-58.0143
-54.4958
-53.8563
-54.7559
-53.8676
-54.7562
-53.8728
-54.4991
-55.357
-55.9136
-55.4889
-55.5914
-55.4831
-55.5996
-55.3437
-54.4957
-53.8564
-54.7562
-53.8684
-54.7563
-53.8728
-54.4993
-7.00128
-10.6179
-8.91708
-8.82739
-8.92976
-8.82683
-7.03287
-6.51364
-2.67515
-4.66137
-4.29525
-4.6636
-4.2917
-6.47726
-6.96778
-6.96238
-7.00081
-10.617
-8.91571
-8.82619
-8.92894
-8.8263
-7.03194
-6.51347
-2.67529
-4.66209
-4.29567
-4.66366
-4.29154
-6.47766
-6.96735
-6.96196
-10.8833
-52.3536
-52.0922
-52.1817
-52.2517
-52.1824
-52.2532
-52.3495
-52.6078
-52.9222
-52.9352
-52.4532
-52.9323
-52.4532
-52.605
-52.3518
-52.092
-52.1825
-52.2504
-52.1824
-52.2518
-52.3498
0.954257
-2.79112
-1.02224
0.583812
-1.03741
0.603752
0.933139
1.55781
3.98277
-0.0247189
4.2725
-0.0872706
4.32507
1.57792
0.952464
-2.79204
-1.02532
0.572115
-1.03825
0.600441
0.927399
1.55493
3.98794
-0.0480926
4.28476
-0.0940757
4.32917
1.57053
-3.50645
1.19549
1.24217
-52.7647
-53.241
-52.7364
-53.0458
-52.7367
-53.0399
-52.7627
-52.4717
-52.1896
-52.352
-52.3706
-52.3545
-52.3701
-52.4714
-52.7645
-53.2414
-52.7361
-53.0448
-52.7368
-53.0401
-52.7625
6.6506
3.68792
3.66068
6.62176
6.49271
7.83554
7.04995
7.39961
7.04744
7.38135
6.51118
6.52941
4.74668
3.67209
6.43894
3.62692
6.45695
6.50787
6.65264
3.68866
3.65995
6.62558
6.49104
7.83054
7.04424
7.37879
7.04519
7.37241
6.50638
-54.7888
-54.7895
-56.0154
-55.9308
-56.5153
-55.9481
-56.5066
-54.7889
-54.789
-56.0157
-55.9325
-56.5157
-55.9487
-56.5067
-53.9276
-53.8122
-53.7832
-54.0021
-53.7879
-53.9961
-53.9282
12.5327
11.656
11.6636
11.524
9.06483
8.6915
11.336
8.67949
11.3586
11.5087
12.5329
11.6708
11.6705
-59.3929
-59.3926
-61.5074
-61.19
-61.6198
-61.6164
-61.5077
-61.0469
-60.2394
-60.4544
-60.8917
-60.4699
-60.87
-61.0472
-59.3936
-59.3929
-61.5069
-61.1891
-61.6192
-61.6162
-61.5064
-61.0492
-60.2398
-60.4565
-60.8926
-60.4709
-60.8705
-61.0516
-58.0686
-58.8152
-58.1661
-58.8187
-58.1548
-58.0794
13.2202
12.8504
12.6463
14.2421
12.6457
14.223
13.2346
13.2797
16.0209
15.4882
12.3633
15.4843
12.2938
13.3008
13.2227
12.8524
12.6517
14.2472
12.6491
14.2251
13.2397
13.2814
16.0208
15.4907
12.369
15.4847
12.2952
13.3055
13.7517
15.1852
15.1762
-73.7898
-73.779
-70.7993
-70.6348
-70.5124
-71.2053
-70.5295
-71.1791
-70.8122
-73.7887
-73.7785
-70.7972
-70.6361
-70.5203
-71.2021
-70.5337
-71.1781
-70.8071
-65.2752
-66.0397
-65.3946
-64.898
-65.3846
-64.8925
-65.3006
-68.6695
-68.5621
-68.9135
-67.6364
-68.9052
-67.6083
-68.6356
-67.2413
-67.9387
-67.9193
-67.2443
-65.2755
-66.0398
-65.395
-64.8982
-65.3849
-64.8928
-65.3011
-68.67
-68.5627
-68.9156
-67.6371
-68.9063
-67.6087
-68.6366
4.77882
15.7665
11.3536
9.75264
11.3244
9.76654
4.87066
-4.15713
-29.715
-3.21628
-20.1899
-3.15514
-20.3045
-4.15423
4.785
15.7654
11.3642
9.78873
11.3269
9.76901
4.89455
-4.14896
-29.7357
-3.17379
-20.2166
-3.14929
-20.313
-4.12997
-99.3612
-98.3836
-103.696
-98.3577
-103.75
-99.3639
-98.3913
-103.692
-98.3682
-103.745
-82.8366
-78.4348
-79.5719
-79.5616
-82.8491
-90.3238
-92.2876
-94.8432
-87.5528
-94.8389
-87.4874
-90.3072
-86.1908
-86.2275
-82.837
-78.4353
-79.5735
-79.5624
-82.8511
-90.3267
-92.2899
-94.8641
-87.5595
-94.8426
-87.4889
-90.3195
-74.714
-77.4292
-75.85
-76.5948
-75.864
-76.5718
-74.7563
-81.4914
-73.9442
-109.809
-72.2056
-110.459
-72.1684
-81.5508
)
;

boundaryField
{
    fixedWalls
    {
        type            zeroGradient;
    }
    frontAndBack
    {
        type            empty;
    }
    right
    {
        type            fixedValue;
        value           uniform 0;
    }
    left
    {
        type            zeroGradient;
    }
    model
    {
        type            zeroGradient;
    }
}


// ************************************************************************* //
