/*--------------------------------*- C++ -*----------------------------------*\
  =========                 |
  \\      /  F ield         | OpenFOAM: The Open Source CFD Toolbox
   \\    /   O peration     | Website:  https://openfoam.org
    \\  /    A nd           | Version:  7
     \\/     M anipulation  |
\*---------------------------------------------------------------------------*/
FoamFile
{
    version     2.0;
    format      ascii;
    class       surfaceScalarField;
    location    "1";
    object      phi;
}
// * * * * * * * * * * * * * * * * * * * * * * * * * * * * * * * * * * * * * //

dimensions      [0 3 -1 0 0 0 0];

internalField   nonuniform List<scalar> 
2879
(
4.2861e-05
-5.22634e-06
4.79893e-05
-5.12839e-06
5.36464e-05
-5.65704e-06
6.06877e-05
-7.04133e-06
6.97975e-05
-9.10975e-06
8.13432e-05
-1.15457e-05
9.52209e-05
-1.38776e-05
0.00011068
-1.54595e-05
0.000126182
-1.55019e-05
0.000140491
-1.4309e-05
0.000149936
-9.44499e-06
0.000149464
4.7183e-07
0.000141141
8.32367e-06
0.000129354
1.17868e-05
0.000118484
1.087e-05
0.000111386
7.09794e-06
0.000110315
1.07077e-06
0.000118945
-8.63007e-06
0.000145275
-2.63297e-05
-0.000104565
0.000106623
-1.23156e-05
0.000114782
-1.32876e-05
0.000124997
-1.58716e-05
0.000138192
-2.02361e-05
0.000155238
-2.61562e-05
0.000176711
-3.30187e-05
0.000202513
-3.96792e-05
0.000231483
-4.44303e-05
0.0002614
-4.5419e-05
0.000291327
-4.4236e-05
0.000314261
-3.23791e-05
0.000321724
-6.99052e-06
0.000314361
1.56867e-05
0.000298975
2.71727e-05
0.000281486
2.83591e-05
0.000266208
2.23754e-05
0.000256351
1.09283e-05
0.000254178
-6.4568e-06
0.000258044
-3.01959e-05
-9.63342e-05
0.000146438
-1.89269e-05
0.000154376
-2.1225e-05
0.000164944
-2.64398e-05
0.000179227
-3.45197e-05
0.000198205
-4.51334e-05
0.000222656
-5.74698e-05
0.000252491
-6.95148e-05
0.000286182
-7.8121e-05
0.000321619
-8.08561e-05
0.000358574
-8.11911e-05
0.000388426
-6.22307e-05
0.000395966
-1.45305e-05
0.000386795
2.48572e-05
0.000371225
4.27434e-05
0.000353308
4.62755e-05
0.000335594
4.00897e-05
0.000319781
2.67406e-05
0.000305708
7.61651e-06
0.000290184
-1.46717e-05
-5.59122e-05
0.000164503
-2.41389e-05
0.000170899
-2.76212e-05
0.000179919
-3.546e-05
0.000192849
-4.74492e-05
0.00021091
-6.31943e-05
0.000235006
-8.15663e-05
0.000264408
-9.89169e-05
0.000296624
-0.000110336
0.000331188
-0.00011542
0.000366857
-0.00011686
0.000392909
-2.56779e-05
-1.84719e-05
-2.56745e-05
-1.84582e-05
0.000385074
-5.95009e-06
2.58918e-06
-5.9331e-06
2.59879e-06
0.000363696
4.6235e-05
0.000347466
5.89736e-05
0.000332784
6.09575e-05
0.000319205
5.36681e-05
0.000306369
3.95769e-05
0.000292967
2.10185e-05
0.000277933
3.62221e-07
-2.76691e-05
0.000165895
-2.7365e-05
0.000170164
-3.18906e-05
0.00017682
-4.21163e-05
0.000187301
-5.79299e-05
0.000203017
-7.89106e-05
0.00022453
-0.000103079
0.000248413
-0.000122799
0.000268039
-0.000129962
0.000285416
-0.000132797
7.50217e-05
-2.97492e-05
6.20937e-05
7.50179e-05
6.20595e-05
-2.30662e-05
-2.9758e-05
-2.30642e-05
7.82051e-05
-2.88615e-05
2.23048e-10
-7.73926e-05
7.35929e-05
1.13275e-09
2.59348e-07
-1.33723e-06
-1.33017e-06
2.56521e-07
0.000224267
1.07742e-05
-6.63355e-05
-4.39895e-05
-6.63255e-05
-4.39773e-05
1.05226e-05
1.07754e-05
1.05238e-05
0.000227683
5.55575e-05
0.000232414
5.6226e-05
0.000235588
5.04948e-05
0.000236979
3.81856e-05
0.000237312
2.06851e-05
0.000237417
2.57916e-07
-3.98826e-05
0.000157138
-2.82727e-05
0.000158908
-3.36611e-05
0.000162668
-4.58764e-05
0.00016982
-6.50819e-05
0.000181684
-9.07741e-05
0.000197644
-0.000119039
0.000210133
-0.000135289
0.000198977
-3.18046e-05
-2.75976e-05
-3.18056e-05
-2.75985e-05
4.49621e-05
-2.32578e-05
3.04977e-05
4.49498e-05
3.0485e-05
-1.91013e-05
-2.32586e-05
-1.90967e-05
4.00514e-05
-2.48376e-05
-9.10153e-10
5.12069e-06
-8.43927e-06
6.49653e-10
7.29457e-06
-3.97664e-06
-3.53505e-06
1.67887e-05
4.82448e-06
1.53411e-10
-3.53647e-06
-1.88583e-06
-1.88177e-06
9.70853e-05
2.31097e-05
-2.01489e-05
-1.21698e-05
-2.01487e-05
-1.21702e-05
0.000120453
3.28588e-05
0.000138917
3.20301e-05
0.000155226
2.18767e-05
0.000171568
4.34333e-06
0.000191586
-1.97601e-05
-9.78816e-05
0.000144867
-2.66768e-05
0.000143821
-3.26151e-05
0.000144012
-4.60674e-05
0.000146421
-6.7491e-05
0.000151738
-9.6091e-05
0.000157718
-0.000125019
3.90606e-05
-3.17665e-05
3.26237e-05
3.90603e-05
3.26223e-05
-2.87035e-05
-3.17657e-05
-2.87023e-05
3.59663e-05
-2.87103e-05
-5.22998e-11
2.17007e-05
-6.72094e-11
-3.13234e-05
-2.98189e-06
-3.83693e-06
-3.8369e-06
-2.97925e-06
2.709e-06
-2.90569e-06
4.62453e-10
2.23457e-06
-2.03834e-06
-7.30627e-09
1.22346e-07
-3.71379e-10
1.02783e-07
-2.17452e-07
2.5564e-05
4.8051e-06
-2.52421e-06
-1.10536e-06
-2.52434e-06
-1.10542e-06
4.69893e-05
1.14335e-05
7.0587e-05
8.43231e-06
9.69661e-05
-4.5023e-06
0.000127768
-2.64581e-05
0.000165546
-5.75387e-05
-0.000181905
0.000134983
-2.26379e-05
0.000130855
-2.84874e-05
0.000126631
-4.18441e-05
0.000122433
-6.3292e-05
0.000117301
-9.09593e-05
2.87924e-05
-0.00011298
2.38377e-05
2.87928e-05
2.38391e-05
2.64863e-05
-2.94605e-05
3.21965e-11
-3.09904e-11
2.31983e-05
-2.27329e-05
2.79693e-06
3.93054e-06
3.934e-06
2.79408e-06
-2.92885e-06
-4.03264e-06
-4.03414e-06
-2.92529e-06
1.76295e-06
-1.76311e-06
1.6231e-10
1.79806e-07
-5.66212e-12
-4.94733e-08
-1.30327e-07
4.65478e-07
-1.06977e-06
1.36574e-06
1.33921e-06
1.36553e-06
1.33891e-06
1.72759e-05
-5.37691e-06
4.28479e-05
-1.71397e-05
7.6316e-05
-3.79704e-05
0.000118458
-6.86001e-05
0.000169048
-0.000108128
-0.000262453
0.000132592
-1.63349e-05
0.000125242
-2.11379e-05
0.000115747
-3.23488e-05
0.000103113
-5.06578e-05
8.69832e-05
-7.48298e-05
1.68807e-05
-2.1954e-05
1.33353e-05
1.6881e-05
1.33341e-05
-2.12608e-05
-2.19541e-05
-2.12593e-05
-2.04082e-05
8.94287e-11
2.53951e-05
2.72535e-06
3.21986e-06
3.2235e-06
2.72497e-06
2.43118e-06
-1.43172e-06
6.00826e-10
-1.00006e-06
-4.99964e-09
-1.36984e-12
-3.31668e-08
3.81674e-08
4.10901e-06
-8.37814e-06
9.16132e-07
6.839e-07
9.15807e-07
6.8352e-07
2.32517e-05
-2.45196e-05
5.25956e-05
-4.64836e-05
9.0757e-05
-7.61319e-05
0.000137868
-0.000115711
0.000191047
-0.000161308
-0.00032107
0.000142422
-8.21046e-06
0.00013206
-1.07755e-05
0.00011688
-1.71694e-05
9.39159e-05
-2.76935e-05
1.62999e-05
-4.16729e-05
1.40789e-05
1.63009e-05
1.40794e-05
1.22822e-05
-1.79364e-05
3.76572e-11
3.91757e-06
-2.23509e-06
1.89671e-10
1.77262e-06
-3.45529e-06
-1.43713e-07
8.6048e-11
1.15073e-08
1.32119e-07
3.13193e-05
-2.87098e-05
-2.10771e-06
-3.38587e-06
-2.10799e-06
-3.38606e-06
5.86755e-05
-5.18759e-05
9.24928e-05
-8.03009e-05
0.000131453
-0.000115092
0.000175026
-0.000159284
0.000219222
-0.000205503
-0.000351604
0.000169069
9.55273e-07
0.000156674
1.61877e-06
0.000136927
2.57807e-06
0.000104295
4.93884e-06
1.39272e-05
7.9743e-06
1.3399e-05
1.39255e-05
1.33958e-05
7.72956e-06
-7.08607e-06
-1.19228e-10
1.32838e-05
1.76805e-06
-7.85685e-07
2.25191e-10
3.20491e-07
-1.30308e-06
5.65992e-05
-3.90874e-05
1.81401e-06
2.13568e-06
1.81417e-06
2.13591e-06
-4.75705e-06
-7.94909e-06
-4.75656e-06
-7.94887e-06
8.83298e-05
-6.04403e-05
0.000122379
-8.59254e-05
0.000157298
-0.000115219
0.000191412
-0.000149206
0.000223281
-0.000191153
0.000249256
-0.000231478
-0.000352222
0.000216641
9.97971e-06
0.000203968
1.42918e-05
0.000182655
2.38908e-05
0.000144025
4.35685e-05
1.7568e-05
7.51034e-05
2.08841e-05
1.75641e-05
2.08802e-05
2.26277e-07
1.1021e-05
-2.81833e-10
1.54091e-06
1.61944e-06
1.61967e-06
1.54101e-06
2.96065e-07
-2.20765e-07
4.38507e-11
-7.53433e-08
2.97469e-07
-5.76861e-07
7.00855e-06
-5.237e-06
3.53369e-12
2.96612e-07
2.18797e-07
2.19583e-07
-5.77755e-07
-8.23923e-07
-8.25476e-07
0.000105004
-6.14479e-05
4.8829e-06
5.03049e-06
4.88296e-06
5.03067e-06
-1.24483e-05
-1.92439e-05
-1.24474e-05
-1.92435e-05
0.000143349
-7.74321e-05
0.000180154
-9.72461e-05
0.000213723
-0.000119494
0.000242826
-0.000144322
0.000265394
-0.000171774
0.00027891
-0.000204669
0.000280797
-0.000233365
-0.000321406
0.000287356
1.72851e-05
0.000278013
2.36348e-05
0.000263366
3.85376e-05
0.000235164
7.17701e-05
3.69558e-05
0.000128406
5.3979e-05
3.69498e-05
5.39765e-05
-2.43875e-05
4.39204e-05
-4.62249e-10
4.96569e-06
3.74399e-06
3.74109e-06
4.97265e-06
-3.60635e-07
-5.02611e-11
1.02481e-06
-6.64122e-07
1.1224e-06
-1.5644e-05
2.28119e-05
-1.16218e-05
4.03864e-11
1.12201e-06
1.10304e-06
1.10637e-06
0.00019911
-8.77717e-05
1.00687e-05
1.03413e-05
1.00681e-05
1.03411e-05
-3.10799e-05
-4.49992e-05
-3.10798e-05
-4.49987e-05
0.00023697
-9.93078e-05
0.000272173
-0.000112635
0.00030222
-0.000127293
0.000325735
-0.00014301
0.000341018
-0.000159605
0.000345777
-0.000176533
0.000336563
-0.000195455
0.00031175
-0.000208553
-0.00025975
0.000374943
2.1809e-05
0.000370659
2.79191e-05
0.000366774
4.24223e-05
0.00036664
7.19048e-05
8.78816e-05
0.000104694
0.000107294
8.78822e-05
0.000107294
-5.67651e-05
9.35647e-05
5.10819e-05
1.22984e-10
-3.03444e-05
-1.68286e-09
2.16508e-05
8.6952e-06
2.47981e-06
-6.57001e-05
6.52592e-05
-8.64762e-06
2.4562e-10
2.47634e-06
2.06568e-06
2.06645e-06
0.000355281
-6.39923e-05
1.3069e-05
1.35297e-05
1.30694e-05
1.35299e-05
-7.06531e-05
-0.000101588
-7.06549e-05
-0.00010159
0.000371708
-8.71906e-05
1.7789e-05
1.75924e-05
1.77892e-05
1.75926e-05
0.000388818
-0.000104881
0.000407454
-0.000117945
0.000423658
-0.000128839
0.000435095
-0.000138729
0.000439727
-0.000147641
0.000435197
-0.000155076
0.000418933
-0.000160268
0.000386804
-0.000163327
0.000337643
-0.000159392
-0.000172297
0.00046504
2.25157e-05
0.00046589
2.70694e-05
0.000471404
3.69083e-05
0.00048899
5.43187e-05
0.000526243
6.74413e-05
0.000596221
0.000100641
-4.1954e-05
-4.33576e-05
-4.19535e-05
-4.33534e-05
0.000620601
6.62046e-05
-3.31331e-05
-1.2162e-05
-3.31277e-05
-1.21623e-05
0.000601301
1.8339e-08
2.20086e-06
7.4387e-06
2.20189e-06
7.44014e-06
0.000583693
-4.6384e-05
0.000571936
-7.54335e-05
0.000563083
-9.6028e-05
0.000556173
-0.000111035
0.000548929
-0.000121594
0.000538693
-0.000128493
0.000523068
-0.000132017
0.000499501
-0.000131509
0.000465475
-0.000126243
0.000416725
-0.000114576
0.0003522
-9.48669e-05
-7.0387e-05
0.000535501
1.95733e-05
0.000539778
2.27925e-05
0.000548174
2.85128e-05
0.000563971
3.85209e-05
0.000587274
4.41387e-05
0.00063423
5.36844e-05
0.000663563
3.6872e-05
0.000665285
-1.70345e-06
0.000657072
-3.81715e-05
0.000645808
-6.41693e-05
0.000631968
-8.2188e-05
0.000615579
-9.46459e-05
0.000596371
-0.000102387
0.000573442
-0.000105564
0.000545547
-0.000104122
0.000511277
-9.72378e-05
0.000469093
-8.40596e-05
0.000415753
-6.12361e-05
0.000350349
-2.94635e-05
2.95823e-05
0.000559678
1.46841e-05
0.000565416
1.70547e-05
0.000573536
2.03923e-05
0.000586685
2.53717e-05
0.000603904
2.69202e-05
0.000630636
2.69528e-05
0.000651118
1.63896e-05
0.000656081
-6.66651e-06
0.000649588
-3.16787e-05
0.000636591
-5.11721e-05
0.000618561
-6.41583e-05
0.000595948
-7.20327e-05
0.000569202
-7.56405e-05
0.000538732
-7.50942e-05
0.000504816
-7.0206e-05
0.000467589
-6.00107e-05
0.000426949
-4.34196e-05
0.00038199
-1.62775e-05
0.00033126
2.12663e-05
0.000110378
0.00051368
9.37374e-06
0.000519892
1.08431e-05
0.000527768
1.25158e-05
0.000538886
1.42537e-05
0.000551866
1.39403e-05
0.00056714
1.16792e-05
0.000578917
4.6128e-06
0.000580594
-8.34364e-06
0.000571648
-2.27328e-05
0.000554612
-3.4136e-05
0.000531429
-4.09759e-05
0.000503411
-4.40142e-05
0.000471859
-4.40888e-05
0.000438249
-4.14843e-05
0.000404196
-3.61527e-05
0.000371434
-2.72485e-05
0.00034154
-1.3526e-05
0.000315602
9.66045e-06
0.000292294
4.45745e-05
0.000152132
0.000381805
4.04484e-06
0.000388051
4.59698e-06
0.000395628
4.93801e-06
0.000404802
5.08035e-06
0.000414274
4.46779e-06
0.000422858
3.09551e-06
0.000427846
-3.75861e-07
0.00042472
-5.21723e-06
0.000412425
-1.04382e-05
0.000392375
-1.40853e-05
0.000367042
-1.56435e-05
0.000338622
-1.55938e-05
0.00030906
-1.45265e-05
0.000280261
-1.26862e-05
0.000254174
-1.00651e-05
0.000233165
-6.23942e-06
0.000219596
4.29741e-08
0.00021826
1.09966e-05
0.000230942
3.18921e-05
0.000132459
0.000157967
0.000162564
0.000167502
0.000172582
0.00017705
0.000180146
0.00017977
0.000174553
0.000164114
0.000150029
0.000134386
0.000118792
0.000104265
9.15792e-05
8.15141e-05
7.52747e-05
7.53177e-05
8.63143e-05
0.000118206
1.30979e-09
-5.06109e-06
-3.77665e-06
-3.77333e-06
-5.04967e-06
6.8009e-11
-5.12483e-06
-4.29448e-06
-4.3021e-06
1.45801e-05
1.14535e-05
1.14644e-05
1.45762e-05
1.05161e-05
-3.42951e-06
3.02227e-09
2.89919e-06
-9.98877e-06
7.81902e-05
-2.88466e-05
7.73789e-05
-5.0571e-06
-3.77339e-06
-3.77362e-06
-5.04145e-06
-5.12646e-06
1.45772e-05
1.14442e-05
1.14625e-05
1.4571e-05
-5.12793e-06
-4.28986e-06
-4.29787e-06
1.04962e-05
-3.40792e-06
1.59796e-09
2.89408e-06
-9.98391e-06
9.84588e-06
7.45407e-10
6.88898e-10
7.24625e-07
9.79075e-06
7.32417e-10
1.68553e-06
-1.20524e-05
-8.30233e-06
-8.30526e-06
-1.20577e-05
1.68824e-06
1.59937e-06
1.60009e-06
7.3579e-05
2.61212e-07
-1.32881e-06
-1.32434e-06
2.59849e-07
9.85305e-06
5.87233e-10
7.16857e-07
9.77871e-06
1.6856e-06
-1.2049e-05
-8.29496e-06
-8.30207e-06
-1.20507e-05
1.68838e-06
1.5992e-06
1.59995e-06
-1.35278e-09
8.44204e-06
6.14484e-06
6.14744e-06
-3.76342e-06
-2.3318e-06
-2.3352e-06
-3.75669e-06
-9.45888e-10
-2.72285e-06
-2.23431e-06
-2.23387e-06
4.73399e-06
3.0469e-06
3.04595e-06
4.73422e-06
4.00238e-05
-2.48329e-05
8.43555e-06
-3.76259e-06
-2.34046e-06
-2.34055e-06
-3.75641e-06
8.439e-06
6.13938e-06
6.14439e-06
-2.70784e-06
4.73052e-06
3.04393e-06
3.04421e-06
4.72832e-06
-2.72158e-06
-2.23354e-06
-2.23286e-06
5.41755e-10
-3.43005e-06
6.53363e-10
7.2675e-06
-3.95907e-06
1.42003e-10
-3.40806e-06
-1.02734e-09
-3.14484e-06
1.29635e-06
2.22233e-07
-1.22375e-07
1.30656e-10
-9.99893e-08
3.53385e-06
-1.03611e-09
-3.1434e-06
1.29619e-06
2.21661e-07
-1.21662e-07
1.71654e-10
-1.00171e-07
7.16233e-06
8.97154e-11
6.19295e-06
7.7168e-11
5.83628e-09
-7.87552e-08
-7.72779e-08
-2.21701e-07
-3.89851e-07
-3.91877e-07
7.83574e-11
1.18543e-06
1.6788e-05
4.82413e-06
-3.53581e-06
-1.88537e-06
-1.88161e-06
7.16324e-06
6.19177e-06
7.38592e-09
-2.21786e-07
-3.89774e-07
-3.91992e-07
5.99275e-09
-7.86237e-08
-7.71024e-08
1.18491e-06
3.17203e-10
2.91792e-06
2.03816e-06
2.03814e-06
-1.91623e-06
-1.73491e-06
-1.73371e-06
-1.916e-06
-3.74644e-06
-3.32491e-10
2.84606e-06
2.66366e-06
2.16955e-05
-3.13221e-05
-2.9815e-06
-3.83584e-06
-3.8363e-06
-2.97849e-06
2.90442e-06
-1.91517e-06
-1.73434e-06
-1.73322e-06
-1.91404e-06
2.91677e-06
2.03751e-06
2.03723e-06
-1.76248e-06
-3.74452e-06
-2.37848e-10
2.84573e-06
2.6615e-06
4.75842e-10
2.23379e-06
-2.03769e-06
-2.88125e-11
-1.21658e-07
-4.70565e-12
-4.9719e-07
1.3617e-11
-1.78047e-07
-2.4228e-07
-2.42866e-07
-1.78415e-07
4.29704e-11
1.98832e-07
-1.90695e-08
4.17249e-11
-1.67444e-06
2.9825e-08
5.86889e-09
6.02325e-09
3.01338e-08
-3.33685e-10
1.03207e-07
-2.17145e-07
-4.96749e-07
-1.78191e-07
-2.42551e-07
-2.43129e-07
-1.78793e-07
-1.79897e-07
3.64191e-11
1.98895e-07
-1.90348e-08
-1.67344e-06
2.97065e-08
5.73253e-09
5.94687e-09
2.99194e-08
2.85653e-06
9.87185e-10
-2.87529e-06
-1.74533e-06
-2.62605e-06
-1.25085e-09
3.13152e-06
1.92695e-06
2.3197e-05
-2.27311e-05
2.79683e-06
3.92967e-06
3.93348e-06
2.794e-06
-2.92891e-06
-4.03182e-06
-4.03365e-06
-2.92551e-06
1.76265e-06
2.85629e-06
1.00805e-09
-2.87467e-06
-1.74528e-06
-2.43064e-06
-2.62589e-06
-1.27833e-09
3.13093e-06
1.92688e-06
1.70738e-10
-8.94794e-07
6.69534e-11
1.38945e-07
1.54281e-07
1.53677e-07
1.39121e-07
-9.88369e-12
3.73732e-08
-4.23634e-08
3.77265e-11
-1.29778e-07
1.48241e-07
1.38574e-07
1.38637e-07
1.48703e-07
-3.32205e-11
-4.90823e-08
-1.30782e-07
-8.936e-07
1.39105e-07
1.54144e-07
1.53516e-07
1.38987e-07
4.99622e-09
2.02615e-12
3.77265e-08
-4.27252e-08
-1.29648e-07
1.48574e-07
1.38975e-07
1.38846e-07
1.48594e-07
4.00969e-06
1.00509e-09
-2.56762e-06
-2.87479e-06
-3.97207e-11
-3.91932e-06
-3.10608e-06
-3.10788e-06
1.9853e-06
1.505e-06
1.50439e-06
1.98327e-06
-1.25149e-10
8.65728e-07
-8.65603e-07
-2.04027e-05
2.53911e-05
2.72526e-06
3.21952e-06
3.22299e-06
2.72493e-06
1.43169e-06
4.00888e-06
9.50167e-10
-2.5672e-06
-2.87432e-06
-3.91594e-06
1.98455e-06
1.50627e-06
1.50551e-06
1.98169e-06
-3.91857e-06
-3.10487e-06
-3.10727e-06
-7.54295e-11
8.67459e-07
-8.67383e-07
5.78024e-10
-9.99528e-07
3.49498e-07
3.13655e-11
1.12021e-07
1.06156e-07
1.06287e-07
1.12358e-07
-2.59454e-11
-1.04418e-07
-3.9269e-08
4.40203e-12
7.03862e-07
7.84325e-08
8.65768e-08
8.60497e-08
7.847e-08
9.67635e-12
-3.33987e-08
3.83848e-08
3.49173e-07
1.12074e-07
1.06446e-07
1.06352e-07
1.12143e-07
1.43373e-07
3.52829e-13
-1.04314e-07
-3.90599e-08
7.0386e-07
7.83612e-08
8.62886e-08
8.5941e-08
7.82441e-08
-1.00774e-06
2.53634e-11
2.32808e-06
4.47671e-07
-2.23461e-06
1.73001e-10
1.7721e-06
-3.45359e-06
-1.76508e-06
-1.00936e-06
-8.82288e-11
2.32492e-06
4.49611e-07
7.18308e-08
1.50856e-08
-1.00382e-10
-3.72952e-08
-4.95215e-08
7.18151e-08
1.49383e-08
-1.1308e-10
-3.7043e-08
-4.95979e-08
-8.81576e-07
3.09339e-11
-1.40042e-07
-1.21247e-07
-1.2059e-07
-1.40424e-07
2.13179e-06
6.46983e-12
-3.12436e-08
-1.70522e-08
-1.76163e-08
-3.11337e-08
-7.27983e-08
-3.81868e-08
-3.79293e-08
1.79045e-11
4.93619e-11
1.15776e-08
1.31745e-07
-8.81451e-07
-1.40142e-07
-1.2132e-07
-1.20743e-07
-1.40444e-07
2.13158e-06
-7.27986e-08
-3.81435e-08
-3.79247e-08
-3.11696e-08
-1.69283e-08
-1.7526e-08
-3.11027e-08
-7.42905e-06
-2.00591e-10
1.23157e-05
7.86393e-07
6.36293e-07
6.34738e-07
6.5394e-06
-2.08991e-10
-2.48045e-10
2.73927e-07
-6.79072e-07
2.74119e-07
4.28223e-07
4.2766e-07
-6.77897e-07
-4.68873e-07
-4.67491e-07
7.72711e-06
-7.08694e-06
1.32852e-05
-7.42715e-06
7.86896e-07
1.23149e-05
7.86912e-07
6.32507e-07
6.32859e-07
6.53559e-06
-2.2695e-07
2.73398e-07
-6.78548e-07
2.73868e-07
4.25995e-07
4.26542e-07
-6.774e-07
-4.6852e-07
-4.67138e-07
-4.61065e-11
5.70039e-07
8.11841e-11
3.18891e-07
-1.29716e-06
-2.94051e-07
-4.55768e-11
5.67496e-07
-9.1083e-11
2.97559e-07
8.24558e-07
-4.533e-07
-2.87968e-10
3.1966e-07
-6.9063e-07
-2.96926e-07
-8.31141e-11
2.97008e-07
8.2456e-07
-4.53548e-07
-2.94194e-10
3.19623e-07
-6.90341e-07
-3.17312e-06
-4.71905e-12
-5.00586e-07
-3.26373e-07
-3.26409e-07
-5.00405e-07
-1.39337e-08
4.94635e-08
4.93968e-08
6.09172e-06
1.01061e-11
4.23826e-07
3.29483e-07
3.28867e-07
4.22646e-07
-8.26825e-07
-5.31441e-07
-5.30829e-07
6.93048e-12
-3.17305e-06
-1.38487e-08
4.95383e-08
4.94302e-08
-5.00535e-07
-3.26414e-07
-3.26425e-07
-5.00332e-07
6.09124e-06
-8.26742e-07
-5.312e-07
-5.30664e-07
4.23845e-07
3.29507e-07
3.28878e-07
4.22664e-07
2.5597e-10
-7.78539e-07
-1.21553e-07
-3.10901e-10
1.70375e-06
2.05622e-06
2.05418e-06
1.7037e-06
1.42057e-06
2.23181e-10
-8.5376e-07
-5.67031e-07
1.10191e-05
1.54031e-06
1.61853e-06
1.61916e-06
1.53978e-06
2.20719e-07
2.78597e-10
-7.77745e-07
-1.21799e-07
2.43836e-05
1.70334e-06
2.05549e-06
2.05386e-06
1.70268e-06
1.42013e-06
2.70948e-10
-8.53562e-07
-5.6684e-07
7.97508e-12
-7.334e-08
1.28972e-06
-6.84309e-07
8.7222e-11
3.02806e-07
-9.08301e-07
1.28963e-06
-6.84545e-07
8.06729e-11
3.02007e-07
-9.07177e-07
4.40223e-10
-2.17073e-07
-3.60229e-07
-5.96803e-10
5.52205e-07
1.8605e-06
5.48627e-11
1.13409e-05
-6.09211e-06
5.03743e-07
5.45159e-07
5.48646e-07
5.05783e-07
-1.48326e-06
-2.1921e-06
-2.19285e-06
-1.48401e-06
5.76751e-07
4.40118e-10
-2.17045e-07
-3.60147e-07
-1.12252e-06
-5.97759e-10
5.52607e-07
1.86015e-06
1.13404e-05
-6.09144e-06
5.03714e-07
5.44829e-07
5.48391e-07
5.05743e-07
-1.48301e-06
-2.19218e-06
-2.19286e-06
-1.48354e-06
-7.27002e-06
1.62112e-11
4.55532e-07
4.60237e-07
4.61137e-07
1.61726e-05
2.00183e-11
1.36812e-11
7.00847e-06
-5.23643e-06
2.96314e-07
2.18512e-07
2.19402e-07
-5.77645e-07
-8.23541e-07
-8.25255e-07
-7.26971e-06
4.55603e-07
4.60452e-07
4.61184e-07
1.61721e-05
-2.96885e-11
-1.25643e-06
2.67703e-06
-6.81658e-11
8.37305e-06
1.21915e-05
1.22037e-05
8.36608e-06
1.86754e-05
5.32805e-09
-9.40102e-06
-9.27966e-06
4.39072e-05
4.96676e-06
3.74408e-06
3.74188e-06
4.97306e-06
7.94e-11
-1.25686e-06
2.67691e-06
5.67542e-05
8.37548e-06
1.2186e-05
1.21991e-05
8.36884e-06
1.86758e-05
4.19902e-09
-9.41297e-06
-9.26702e-06
4.1747e-06
-1.69836e-06
1.25416e-09
8.8349e-07
-3.36108e-06
4.17474e-06
-1.70024e-06
1.28521e-09
8.82734e-07
-3.35851e-06
4.54234e-12
-3.6064e-07
-1.44451e-10
1.25056e-06
5.4041e-06
1.6114e-10
2.43972e-05
-9.04569e-06
7.00213e-07
7.66633e-07
7.65751e-07
7.01453e-07
-3.29948e-06
-5.84241e-06
-5.83728e-06
-3.30656e-06
3.60469e-07
3.16782e-12
-3.60473e-07
-2.47893e-06
-2.75671e-10
1.25072e-06
5.40322e-06
2.43943e-05
-9.04279e-06
7.00164e-07
7.66423e-07
7.65588e-07
7.01475e-07
-3.29957e-06
-5.84231e-06
-5.83698e-06
-3.30618e-06
-9.27815e-06
4.49363e-11
-2.86865e-06
-1.72879e-06
-1.72598e-06
-2.86885e-06
6.86856e-07
7.28997e-07
7.26191e-07
3.13482e-05
6.80363e-11
1.62283e-06
1.43702e-06
1.43703e-06
1.62105e-06
6.27034e-11
3.55998e-05
-4.94274e-11
1.02461e-06
-6.64088e-07
-9.27634e-06
1.56426e-05
6.8691e-07
7.28343e-07
7.25738e-07
-2.86828e-06
-1.72915e-06
-1.72612e-06
-2.86824e-06
3.13461e-05
1.6227e-06
1.43707e-06
1.43702e-06
1.62085e-06
3.55998e-05
2.66894e-06
-4.00336e-10
-2.20692e-05
-1.71482e-05
-1.72262e-05
-2.20359e-05
1.69092e-06
3.36141e-06
3.36018e-06
0.000124529
-1.89008e-10
-0.000125818
-6.61718e-06
-9.2856e-06
-9.2917e-06
-6.65006e-06
-5.68978e-11
0.000115036
-3.03415e-05
-1.89495e-09
2.16491e-05
8.69434e-06
2.68155e-06
6.56941e-05
1.69209e-06
3.35883e-06
3.35894e-06
-2.20669e-05
-1.71558e-05
-1.72328e-05
-2.20307e-05
0.000124519
-0.000125816
-6.61364e-06
-9.28362e-06
-9.29045e-06
-6.64366e-06
0.000115038
3.86078e-06
-3.86075e-06
-6.6541e-10
6.39369e-10
7.28586e-06
-3.96743e-06
-5.69338e-10
3.93683e-09
-3.86245e-06
6.8586e-06
-2.25146e-09
3.86311e-06
-1.69266e-06
6.84801e-06
4.59281e-10
-1.6822e-06
-7.88532e-10
-3.27553e-11
-2.62421e-06
2.62424e-06
-2.62375e-06
2.62374e-06
-2.13356e-11
-2.29546e-05
-8.38244e-11
2.71119e-05
-6.27735e-11
-1.61414e-10
3.74386e-06
4.9585e-06
4.95948e-06
-2.85996e-06
-3.76542e-06
-3.76898e-06
3.59646e-05
-2.871e-05
-2.2956e-05
2.71093e-05
3.74276e-06
4.95677e-06
4.95858e-06
-2.85969e-06
-3.76491e-06
-3.76868e-06
2.23358e-06
-2.03797e-06
-7.7444e-11
2.56197e-10
-1.84414e-10
-2.72016e-11
-1.1231e-11
2.18819e-07
-1.54083e-08
-2.73701e-10
-3.81174e-07
-9.54766e-12
1.01441e-07
-2.17326e-07
1.21362e-07
-1.16491e-11
-1.33785e-10
-2.18119e-07
1.50946e-10
1.51559e-08
-2.32759e-07
-1.83803e-11
-2.32582e-07
-1.53026e-12
-3.81652e-07
-2.49501e-05
2.08691e-11
1.97723e-05
6.146e-11
7.4603e-11
2.62781e-06
3.56127e-06
3.56402e-06
-4.01273e-06
-4.76614e-06
-4.76849e-06
2.64863e-05
-2.94592e-05
-2.49471e-05
1.9771e-05
2.62758e-06
3.56111e-06
3.564e-06
-4.0123e-06
-4.76537e-06
-4.76803e-06
1.76431e-06
-1.76414e-06
-6.28788e-12
2.93774e-07
4.71148e-08
-8.19202e-11
-2.01845e-07
-1.73541e-11
-4.94588e-08
-1.30413e-07
1.7986e-07
5.98811e-12
-2.08883e-11
-2.93853e-07
3.98682e-07
1.81332e-11
-4.72461e-08
-8.30997e-08
3.97975e-07
-3.92747e-12
-8.32819e-08
1.37662e-12
-2.02061e-07
-1.00029e-06
2.43312e-06
-1.43223e-06
-1.39717e-13
-8.1106e-11
-9.99983e-07
-1.00037e-06
2.6351e-12
-6.99914e-08
3.36423e-08
-1.80582e-11
1.48397e-07
-9.40953e-12
-3.32674e-08
3.823e-08
-4.96514e-09
7.09944e-13
3.46547e-11
6.99837e-08
2.97049e-09
8.69869e-13
-3.37152e-08
7.18812e-08
3.07471e-09
-1.22423e-11
7.18705e-08
2.16658e-12
1.48608e-07
-1.71018e-05
5.64047e-11
2.23742e-06
1.82504e-06
1.82557e-06
9.42633e-06
6.99167e-12
8.88199e-11
1.00949e-06
1.31105e-06
1.31189e-06
1.2284e-05
-1.79372e-05
-1.70986e-05
2.23736e-06
1.82556e-06
1.8258e-06
9.42744e-06
1.01037e-06
1.31178e-06
1.31231e-06
2.33512e-06
-1.23978e-06
4.55994e-10
7.72847e-07
-1.86865e-06
-2.98424e-12
1.77378e-06
-3.4555e-06
3.71499e-12
8.21685e-10
-2.33642e-06
1.00214e-06
-3.16189e-10
1.24049e-06
-2.87042e-06
1.00183e-06
7.49782e-12
-2.87003e-06
1.22188e-11
7.73032e-07
-1.86851e-06
-1.32359e-07
-3.89313e-08
3.79769e-12
-2.08716e-13
1.16873e-08
1.31884e-07
-1.4349e-07
3.56402e-12
1.18868e-10
1.32065e-07
-2.41924e-07
-1.07117e-10
3.94889e-08
7.5684e-08
-2.41149e-07
6.5595e-12
7.5238e-08
-9.17141e-12
3.31241e-07
-3.31272e-07
8.43264e-11
-5.24791e-11
3.19414e-07
-1.29921e-06
1.76626e-06
1.53501e-10
2.90632e-10
-3.32456e-07
6.52657e-07
-7.68784e-10
3.32372e-07
-9.98386e-07
6.50728e-07
2.17933e-10
-9.96225e-07
-2.88121e-10
3.26388e-07
-4.03396e-07
2.49515e-10
-1.88163e-12
2.01261e-11
-3.26394e-07
-1.36049e-10
4.03904e-07
-7.42858e-08
-8.32604e-13
-7.46648e-08
-1.41317e-12
-7.39693e-08
2.94497e-07
-2.20523e-07
3.99953e-11
3.62849e-12
-7.53466e-08
-7.39532e-08
-1.20119e-11
-1.64276e-07
3.22967e-11
3.51122e-07
-1.86884e-07
4.15975e-12
-5.90549e-11
1.6398e-07
-1.63922e-07
-1.64336e-07
1.13303e-12
3.49583e-07
-1.85572e-07
9.81099e-11
4.57226e-07
-4.57327e-07
2.40691e-12
4.55966e-07
-4.55868e-07
1.08706e-06
-2.33376e-06
8.76077e-10
1.99583e-12
1.02559e-06
-6.65643e-07
-3.59992e-07
-5.05946e-13
3.22286e-10
-1.09019e-06
3.8588e-07
-4.22084e-10
2.33711e-06
-1.5638e-06
3.86989e-07
9.28267e-13
-1.56279e-06
1.10207e-12
-1.43602e-05
4.46459e-11
4.1767e-05
2.70066e-11
2.4957e-11
2.28101e-05
-1.16218e-05
1.12202e-06
1.10333e-06
1.10654e-06
-1.43612e-05
4.17672e-05
5.27539e-05
3.26841e-10
3.04062e-05
2.47813e-05
2.47916e-05
-1.87096e-05
-1.60635e-05
-1.60645e-05
0.000116421
8.22993e-11
2.71826e-11
9.35567e-05
5.10798e-05
5.2748e-05
-1.87102e-05
-1.60593e-05
-1.60638e-05
3.0407e-05
2.47787e-05
2.47909e-05
0.000116421
-4.47602e-06
-2.42113e-05
1.26635e-09
-2.75968e-10
2.16925e-05
8.71187e-06
8.55409e-11
9.29636e-09
4.49333e-06
-5.19119e-10
2.41914e-05
-3.69321e-10
-4.901e-11
-1.44397e-05
1.25234e-10
0.000108589
1.49054e-10
7.24111e-11
6.52559e-05
-8.64884e-06
2.47599e-06
2.06566e-06
2.0667e-06
-1.44417e-05
0.000108591
1.44201e-05
-4.90274e-06
1.39131e-09
2.57534e-10
2.89935e-06
-9.98393e-06
1.11021e-09
1.05085e-05
-3.42198e-06
4.21025e-10
-1.4425e-05
1.35471e-05
-2.5429e-09
4.8971e-06
-3.42985e-06
4.60051e-10
1.35461e-05
2.9048e-10
-3.42508e-06
1.4416e-05
-4.89731e-06
1.66126e-09
2.89899e-06
-9.9848e-06
1.04973e-05
-3.40877e-06
-1.19978e-10
-1.44178e-05
1.35386e-05
-2.53452e-09
4.88651e-06
-3.42365e-06
1.35417e-05
-3.42184e-06
-1.29353e-05
1.14138e-06
7.20297e-10
1.84122e-10
7.20194e-07
9.78881e-06
1.67657e-10
-6.55809e-10
1.29352e-05
-1.00827e-09
-1.13478e-06
1.8585e-10
1.67079e-10
-1.29316e-05
1.14305e-06
1.00258e-09
7.1499e-07
9.78305e-06
-9.53243e-10
1.29276e-05
-1.24834e-09
-1.13778e-06
2.62277e-06
2.62295e-06
4.01824e-06
-3.04586e-06
-1.4869e-09
-3.12735e-10
-1.17529e-09
-4.02304e-06
1.69242e-06
-1.01371e-10
3.047e-06
-2.55427e-10
1.68211e-06
-1.11087e-11
4.01378e-06
-3.04415e-06
-2.00839e-09
-5.96176e-10
-4.01387e-06
1.674e-06
-4.49556e-11
3.04397e-06
1.67238e-06
-3.42174e-06
2.97996e-10
-1.29337e-09
-1.0548e-10
-2.40407e-10
-3.28311e-10
3.85746e-06
-3.85671e-06
-1.04311e-10
7.26829e-06
-3.95714e-06
3.2636e-09
-3.85601e-06
6.83039e-06
-1.83702e-09
3.85612e-06
-1.67396e-06
6.8316e-06
-1.67209e-06
-3.40833e-06
-1.32335e-09
3.82175e-11
-1.08076e-06
1.08076e-06
1.8322e-12
-2.85676e-12
-3.14241e-06
1.29311e-06
5.1094e-11
-6.474e-10
1.07941e-06
3.32512e-10
-1.07941e-06
4.89596e-07
1.10295e-11
4.92403e-07
3.47281e-11
-1.00246e-07
1.22751e-11
-1.21336e-07
-2.44229e-10
3.54621e-11
-2.70443e-11
2.6228e-06
2.6229e-06
-1.0808e-06
1.0808e-06
-2.97903e-12
-3.14138e-06
1.29297e-06
-6.78637e-10
1.07928e-06
3.69143e-10
-1.07928e-06
4.89733e-07
4.92563e-07
-1.00395e-07
-1.21207e-07
-2.11349e-10
-3.96743e-06
-1.68781e-06
-5.18838e-10
2.67393e-06
-5.63089e-11
2.84407e-06
2.66386e-06
-8.59854e-11
7.50279e-10
3.96687e-06
-5.589e-10
1.68791e-06
9.76313e-07
-3.96363e-11
9.7558e-07
-9.2414e-11
2.67501e-06
1.73354e-06
-9.75633e-07
-1.42152e-10
-6.15186e-11
2.80443e-10
-1.73519e-06
-5.38623e-12
9.76318e-07
1.12011e-10
-5.87768e-11
-3.96682e-06
-1.68712e-06
-5.72582e-10
2.67296e-06
2.84379e-06
2.66273e-06
-1.76408e-06
7.90406e-10
3.96587e-06
-4.69636e-10
1.68661e-06
9.75361e-07
9.7504e-07
2.67342e-06
1.73295e-06
-9.75028e-07
-1.84695e-10
1.64532e-10
-1.73451e-06
4.67606e-11
9.75315e-07
2.23263e-06
-2.03705e-06
2.57241e-10
-1.77756e-10
-3.68857e-12
-1.21216e-07
3.39491e-08
-3.85367e-07
6.93346e-11
-1.56443e-12
1.98631e-07
-1.87295e-08
5.29438e-13
4.14734e-12
-3.39319e-08
9.9746e-11
3.85381e-07
1.49446e-12
1.11887e-12
2.1868e-07
-1.54888e-08
-2.7651e-10
-3.81115e-07
1.01682e-07
-2.1725e-07
-1.10771e-10
-2.17858e-07
1.54291e-10
1.54166e-08
-2.32716e-07
-2.32587e-07
-3.81511e-07
3.38986e-08
-3.85384e-07
7.44841e-11
1.98686e-07
-1.87147e-08
-1.79935e-07
8.37503e-13
-3.3823e-08
8.55935e-11
3.8534e-07
-3.98728e-07
-3.98065e-07
2.71138e-06
1.74643e-06
5.05318e-10
-1.66137e-06
-7.63407e-12
-2.87666e-06
-1.74643e-06
-2.32585e-11
2.48589e-10
-2.71041e-06
-3.09407e-12
-1.74533e-06
-1.69948e-11
-2.96955e-12
-1.66116e-06
-2.6616e-06
-1.92796e-06
-6.38942e-10
1.66136e-06
-2.98038e-12
3.13169e-06
1.92799e-06
3.75036e-12
4.55364e-11
2.66012e-06
-2.51135e-11
1.92698e-06
1.19446e-12
-1.17968e-12
1.66117e-06
-1.23727e-11
-1.01317e-12
2.71119e-06
1.74639e-06
4.97779e-10
-1.66125e-06
-2.87623e-06
-1.74639e-06
1.76392e-06
2.59224e-10
-2.71016e-06
5.92433e-13
-1.74528e-06
-1.66094e-06
-2.66161e-06
-1.92791e-06
-6.29041e-10
1.66124e-06
3.13124e-06
1.92794e-06
-2.43287e-06
3.20021e-11
2.66019e-06
-2.93011e-11
1.92691e-06
1.66095e-06
-1.23313e-11
4.57243e-08
-9.92355e-08
-6.38435e-11
-2.95461e-11
3.75507e-08
-4.25243e-08
-2.00771e-12
7.12045e-12
-4.57342e-08
2.4573e-11
9.91558e-08
-2.10685e-13
-2.41253e-11
2.93757e-07
4.71691e-08
-4.48984e-11
-2.01794e-07
-4.91533e-08
-1.3081e-07
-4.9907e-11
-2.93617e-07
1.4814e-13
-4.72095e-08
-8.35728e-08
-8.36394e-08
-2.01885e-07
4.59128e-08
-9.91304e-08
-3.18268e-11
3.77281e-08
-4.27147e-08
4.98617e-09
-6.71044e-13
-4.58461e-08
2.0835e-11
9.91694e-08
-2.94052e-09
-3.00331e-09
4.11512e-06
1.76706e-06
3.38127e-10
-3.15719e-06
2.81907e-11
-2.57038e-06
-2.87359e-06
1.37711e-11
2.71011e-10
-4.11417e-06
-3.08323e-10
-1.76805e-06
-2.10642e-06
1.38057e-11
-2.10726e-06
4.85266e-11
-3.15691e-06
1.24029e-06
-2.41187e-06
-3.584e-10
5.08303e-11
8.66242e-07
-8.66351e-07
-1.56984e-11
8.04257e-10
-1.2415e-06
-1.1757e-09
2.41549e-06
-1.77492e-06
8.07214e-11
-8.6012e-11
-1.77492e-06
4.11473e-06
1.76663e-06
4.01128e-10
-3.15647e-06
-2.56994e-06
-2.87362e-06
1.43223e-06
2.30931e-10