/*--------------------------------*- C++ -*----------------------------------*\
  =========                 |
  \\      /  F ield         | OpenFOAM: The Open Source CFD Toolbox
   \\    /   O peration     | Website:  https://openfoam.org
    \\  /    A nd           | Version:  7
     \\/     M anipulation  |
\*---------------------------------------------------------------------------*/
FoamFile
{
    version     2.0;
    format      ascii;
    class       volVectorField;
    location    "1";
    object      U;
}
// * * * * * * * * * * * * * * * * * * * * * * * * * * * * * * * * * * * * * //

dimensions      [0 1 -1 0 0 0 0];

internalField   nonuniform List<vector> 
1161
(
(0.788975 -0.0476869 0)
(0.894945 -0.0437809 0)
(1.00808 -0.0453671 2.99979e-22)
(1.13207 -0.0555085 0)
(1.29012 -0.0722333 3.68253e-22)
(1.49473 -0.0918227 1.44291e-21)
(1.74899 -0.109498 -1.1847e-21)
(2.04493 -0.118971 0)
(2.35789 -0.112841 0)
(2.66447 -0.0908817 0)
(2.91626 -0.0337939 4.64694e-21)
(3.01215 0.0485295 -1.10669e-20)
(2.92062 0.110432 0)
(2.70725 0.120838 0)
(2.46934 0.090291 0)
(2.28155 0.037124 0)
(2.19166 -0.0359686 -7.36428e-21)
(2.2698 -0.152835 -8.43448e-23)
(2.67615 -0.400176 0)
(2.60657 -1.41691 0)
(2.03794 -0.170331 -4.38104e-23)
(2.18504 -0.176057 -1.98785e-22)
(2.37803 -0.201828 -7.26841e-22)
(2.60803 -0.253128 0)
(2.90379 -0.326314 -7.15297e-22)
(3.28461 -0.411972 1.08461e-21)
(3.75655 -0.49475 0)
(4.30913 -0.552415 0)
(4.9031 -0.556068 0)
(5.51466 -0.510877 -7.0551e-21)
(6.07098 -0.33088 -1.36061e-20)
(6.39622 -0.0136336 2.4955e-21)
(6.40084 0.265534 1.20408e-20)
(6.15582 0.393746 -1.20405e-20)
(5.8035 0.380796 0)
(5.45943 0.269513 2.77149e-20)
(5.19502 0.0806284 0)
(5.06673 -0.211426 -7.10536e-21)
(5.06466 -0.623441 -4.05048e-21)
(5.17119 -2.30105 4.08615e-21)
(2.84189 -0.313391 9.06367e-23)
(2.97542 -0.345483 -5.59921e-22)
(3.16893 -0.421584 5.24916e-22)
(3.41321 -0.543081 0)
(3.73779 -0.704984 -1.5705e-21)
(4.16564 -0.894055 -1.56664e-21)
(4.7068 -1.08286 0)
(5.34752 -1.2286 -1.80932e-20)
(6.04397 -1.2792 5.83737e-20)
(6.78466 -1.26195 -4.94486e-20)
(7.47729 -0.908143 1.77959e-20)
(7.88971 -0.231458 -3.65191e-20)
(7.88543 0.348584 -1.17504e-20)
(7.61365 0.657647 -5.34746e-20)
(7.24966 0.730208 5.40401e-20)
(6.88039 0.624839 -2.77226e-20)
(6.53808 0.380054 7.76836e-22)
(6.24861 -0.00188589 -1.36746e-20)
(5.93637 -0.469258 -1.41696e-20)
(5.77205 -1.54422 3.54791e-21)
(3.22316 -0.435266 1.02223e-22)
(3.32576 -0.491975 -7.58199e-23)
(3.48513 -0.621251 -1.3718e-22)
(3.69973 -0.820163 3.54059e-21)
(4.00087 -1.08175 -1.16033e-21)
(4.4146 -1.38898 5.92309e-21)
(4.95131 -1.69617 -1.4081e-21)
(5.57566 -1.93464 8.33273e-21)
(6.24356 -2.07294 -2.28133e-20)
(6.96784 -2.18992 -2.42456e-06)
(7.5949 -1.52876 -1.5751e-06)
(7.84513 -0.305895 6.40766e-06)
(7.53615 0.53717 4.34482e-06)
(7.13247 0.947801 1.66757e-19)
(6.79838 1.06667 -5.4064e-20)
(6.51639 0.966312 5.43889e-20)
(6.25481 0.702879 5.46966e-20)
(5.9965 0.321315 1.36989e-20)
(5.7151 -0.102728 -6.35899e-21)
(5.46747 -0.735894 3.34141e-21)
(3.27687 -0.520501 -2.15175e-23)
(3.34125 -0.599004 3.05112e-22)
(3.45136 -0.778188 -9.48133e-22)
(3.61737 -1.05475 -2.34326e-21)
(3.87138 -1.42105 3.29247e-21)
(4.23697 -1.85127 -5.25371e-21)
(4.7056 -2.25176 1.19898e-21)
(5.15907 -2.50452 -7.28692e-21)
(5.53597 -2.67649 -2.08433e-06)
(5.90517 -2.78098 -2.63392e-05)
(6.34737 -2.28119 0.520023)
(5.96904 -0.246103 0.632404)
(4.41916 1.12295 -4.15046e-06)
(4.49657 1.28436 4.47544e-06)
(4.61605 1.2779 -5.64471e-20)
(4.69979 1.12648 -8.13889e-20)
(4.74114 0.850449 2.66224e-20)
(4.74145 0.487123 -3.9818e-20)
(4.78805 0.0988017 0)
(4.63188 -0.468535 -3.43074e-21)
(3.13043 -0.562094 -1.01243e-23)
(3.15177 -0.660245 0)
(3.2038 -0.884326 1.29519e-21)
(3.3088 -1.23512 -2.30363e-21)
(3.49483 -1.7052 -2.19932e-21)
(3.775 -2.24456 1.0648e-20)
(4.09219 -2.64157 6.0485e-07)
(4.14327 -2.69875 -1.53556e-06)
(3.82142 -2.49716 1.35654e-06)
(3.33683 -2.27318 0.306125)
(2.71017 -1.59766 0.437211)
(1.08637 0.587766 0.713532)
(1.68898 0.803455 -2.18442e-06)
(2.20526 0.926889 1.15652e-19)
(2.61848 0.870303 6.82214e-21)
(2.95503 0.657341 0)
(3.25845 0.325485 1.97245e-20)
(3.71053 -0.0890622 -1.30638e-20)
(3.73429 -1.16905 3.42976e-21)
(2.91497 -0.555586 1.01045e-23)
(2.88895 -0.669373 5.39537e-23)
(2.87433 -0.928751 9.1661e-23)
(2.90018 -1.34064 4.21975e-22)
(2.98104 -1.89383 2.40407e-21)
(3.11739 -2.48347 -8.84161e-21)
(3.17762 -2.67788 -6.07502e-07)
(3.0246 -2.44741 0.129966)
(2.15115 -1.68666 0.166912)
(0.831507 -0.654705 0.214848)
(-0.0141222 -0.0769407 0.61116)
(0.29452 0.215175 2.21295e-06)
(0.721457 0.424467 -4.44315e-22)
(1.1779 0.419119 -3.37131e-20)
(1.6671 0.215052 2.35533e-20)
(2.22684 -0.156231 -6.49873e-21)
(3.00583 -0.699833 2.30033e-20)
(3.34573 -2.75324 -5.01749e-21)
(2.74781 -0.499474 6.04323e-23)
(2.67105 -0.619853 -1.10985e-22)
(2.58015 -0.894814 -5.2886e-22)
(2.50061 -1.33585 6.55692e-22)
(2.42322 -1.91762 -1.99866e-22)
(2.34602 -2.4479 1.00899e-07)
(2.28164 -2.44915 0.0441862)
(1.60534 -1.56439 0.0794758)
(0.259252 -0.216463 0.0583596)
(-0.0111278 -0.0578795 0.430832)
(-0.125098 0.0087249 -9.05924e-06)
(0.142207 0.0529605 -7.26374e-21)
(0.576319 -0.0755986 0)
(1.16512 -0.399474 1.67011e-20)
(1.92714 -0.917956 0)
(2.8908 -1.64431 -3.27587e-21)
(3.62635 -4.5593 1.76157e-21)
(2.72875 -0.395221 1.28782e-22)
(2.60191 -0.505576 1.47564e-23)
(2.42704 -0.761314 7.47713e-23)
(2.21599 -1.17661 -3.21763e-21)
(1.93459 -1.7173 -2.38755e-07)
(1.53831 -2.12625 1.60027e-08)
(1.26152 -1.86034 -0.0087764)
(0.334848 -0.465487 0.0299239)
(-0.00509513 0.00853107 0.40933)
(-0.0606254 -0.0613478 -1.32671e-05)
(0.232472 -0.276089 0)
(0.72848 -0.62232 5.46341e-20)
(1.40726 -1.13901 -4.09379e-20)
(2.28372 -1.85738 2.63861e-20)
(3.24743 -2.73621 6.80874e-21)
(4.22577 -5.99188 -1.03772e-20)
(2.94743 -0.248106 1.9352e-22)
(2.77957 -0.324994 -3.18527e-22)
(2.5215 -0.511566 -7.47004e-23)
(2.15195 -0.821481 0)
(1.61246 -1.22442 4.7759e-08)
(1.11452 -1.59017 -0.072513)
(0.606222 -1.18258 -0.0611257)
(-0.00390544 0.0407985 0.527346)
(0.387641 -0.305925 -2.33366e-06)
(0.870425 -0.726082 5.87659e-20)
(1.49496 -1.25813 0)
(2.227 -1.93332 -2.69529e-20)
(3.09725 -2.8044 -2.6354e-20)
(3.87495 -3.751 6.60647e-21)
(4.85187 -6.87483 -3.1892e-22)
(3.49012 -0.0706612 2.10783e-22)
(3.30205 -0.0901983 -6.22052e-22)
(2.98489 -0.152769 -1.81928e-21)
(2.47864 -0.26278 1.40662e-20)
(1.6799 -0.431122 1.48736e-06)
(0.805703 -0.820083 -0.110864)
(0.192907 -0.509296 -0.10232)
(0.778156 -0.400966 1.8926e-05)
(1.41414 -0.840055 4.53071e-06)
(2.09573 -1.3574 -1.48395e-20)
(2.80184 -1.96418 0)
(3.49179 -2.6827 -2.62859e-20)
(4.22185 -3.57672 0)
(4.65649 -4.46441 -3.03145e-21)
(5.44451 -7.15986 -3.28184e-21)
(4.43406 0.117852 -9.21374e-23)
(4.25515 0.174463 1.17349e-21)
(3.92893 0.292697 -3.84323e-21)
(3.36137 0.527539 4.98854e-21)
(2.40684 0.863177 5.34525e-08)
(0.87916 0.411911 -0.143619)
(0.0272738 -0.0771872 -0.0951955)
(0.310558 -0.136031 0.739182)
(1.72457 -0.784574 5.25525e-06)
(2.46668 -1.15446 4.97236e-06)
(3.22738 -1.58436 7.35751e-20)
(3.94271 -2.07324 1.41077e-20)
(4.59189 -2.62888 -1.41146e-20)
(5.10167 -3.25842 2.62734e-20)
(5.55815 -4.02451 -8.32127e-21)
(5.53146 -4.72392 -2.84551e-21)
(5.99761 -6.81335 -4.17785e-21)
(5.82833 0.283142 0)
(5.70161 0.399029 0)
(5.48417 0.66688 -1.85374e-22)
(5.0879 1.23666 3.34121e-21)
(4.60856 2.2793 -2.54685e-07)
(2.21987 2.75963 -0.0793611)
(0.18716 -0.116007 0.684236)
(1.56882 -0.638345 0.816965)
(3.55944 -1.3473 -1.07581e-05)
(4.36374 -1.66909 -5.09051e-06)
(5.09704 -1.97774 -7.96752e-20)
(5.7531 -2.3129 3.80942e-20)
(6.29269 -2.68252 0)
(6.70817 -3.09029 -1.26758e-20)
(6.89484 -3.52933 0)
(6.96668 -4.04679 1.11632e-20)
(6.42068 -4.46094 7.91095e-21)
(6.49 -5.8406 4.17612e-21)
(7.56482 0.396019 0)
(7.50406 0.525473 2.58518e-23)
(7.46103 0.822987 -2.19146e-22)
(7.42015 1.46731 2.94338e-20)
(7.90948 2.31355 7.47686e-07)
(7.53202 4.44029 0.268547)
(6.78956 2.80825 0.626716)
(5.22352 -0.963754 1.00963)
(6.87132 -1.47298 3.11166e-06)
(7.20482 -1.82549 3.61269e-20)
(7.56313 -2.08241 -1.77696e-19)
(7.95385 -2.31286 3.18001e-20)
(8.30978 -2.53111 5.99883e-20)
(8.59528 -2.75171 -3.06155e-20)
(8.75773 -2.97566 0)
(8.79032 -3.1982 8.61524e-22)
(8.56406 -3.40402 -4.93653e-21)
(8.2092 -3.61205 9.42818e-21)
(7.18043 -3.69235 -2.52835e-21)
(6.86927 -4.31652 -1.42244e-21)
(9.36135 0.443853 -9.59062e-22)
(9.35468 0.551678 8.25741e-22)
(9.42609 0.788213 4.05825e-22)
(9.61742 1.25552 0)
(10.114 1.75268 -1.56039e-20)
(11.0182 2.49037 -3.57931e-06)
(12.0415 1.37814 8.95632e-06)
(12.4062 -0.0548783 -5.49542e-06)
(11.9524 -0.937926 5.50142e-06)
(11.5271 -1.52521 0)
(11.2865 -1.95892 -3.15036e-20)
(11.1533 -2.28167 -2.96802e-20)
(11.0318 -2.52285 -5.82097e-20)
(10.8726 -2.70246 1.41288e-20)
(10.6156 -2.82848 0)
(10.2553 -2.89449 1.18156e-20)
(9.65854 -2.88694 -8.92618e-21)
(8.96113 -2.79141 4.63817e-22)
(7.61566 -2.54372 -2.93339e-21)
(7.06222 -2.4143 0)
(10.7633 0.42354 0)
(10.7863 0.499316 -6.07598e-21)
(10.8959 0.64613 6.08782e-21)
(11.1191 0.918987 1.4592e-20)
(11.4943 1.07214 5.49057e-20)
(12.0823 1.32143 -5.50817e-20)
(12.8639 0.877589 5.27302e-20)
(13.3392 -0.0115917 1.28314e-20)
(13.3068 -0.787133 2.24813e-20)
(13.04 -1.34556 7.06309e-21)
(12.7427 -1.7489 0)
(12.4429 -2.04143 2.94327e-20)
(12.0997 -2.24172 0)
(11.6908 -2.35566 0)
(11.1807 -2.38427 -1.14811e-20)
(10.5829 -2.31222 1.21676e-20)
(9.79399 -2.12425 1.14008e-20)
(8.95593 -1.76789 3.49688e-22)
(7.56985 -1.23544 -1.61365e-21)
(7.00964 -0.385774 1.1741e-21)
(11.2326 0.348243 0)
(11.2705 0.397116 0)
(11.3885 0.480918 5.01558e-21)
(11.5953 0.615552 -3.59286e-21)
(11.8856 0.661103 -1.88233e-20)
(12.2742 0.688923 1.18318e-20)
(12.7506 0.423398 1.98279e-21)
(13.0737 -0.13247 -2.17428e-20)
(13.0902 -0.706768 -1.41198e-20)
(12.8722 -1.15139 -3.34315e-20)
(12.5343 -1.46437 4.61734e-20)
(12.1226 -1.67416 -2.6147e-20)
(11.633 -1.79503 2.50016e-20)
(11.0667 -1.82711 -3.71792e-20)
(10.4175 -1.76659 -1.13917e-20)
(9.71781 -1.59241 -1.08506e-20)
(8.91319 -1.28414 6.81153e-22)
(8.14723 -0.753719 1.33142e-20)
(7.01486 -0.0320955 5.01906e-21)
(6.69441 1.45065 -1.65097e-21)
(10.2869 0.241976 2.10356e-21)
(10.3397 0.273775 -5.8588e-21)
(10.4671 0.320706 -1.00274e-21)
(10.6576 0.377054 2.66426e-20)
(10.8902 0.378209 -8.07055e-21)
(11.1558 0.330437 -2.92684e-20)
(11.4292 0.139932 3.72358e-20)
(11.5896 -0.203962 0)
(11.5339 -0.577878 -2.31772e-20)
(11.2677 -0.874119 -2.35015e-21)
(10.8514 -1.06807 3.03892e-20)
(10.3325 -1.17459 0)
(9.73424 -1.20757 1.21504e-20)
(9.08096 -1.16983 1.19647e-20)
(8.39599 -1.0584 -2.95131e-20)
(7.72702 -0.854272 2.2866e-20)
(7.07547 -0.530457 -1.05843e-20)
(6.56885 0.0144815 -4.85199e-21)
(5.93455 0.758659 3.68465e-22)
(6.04389 2.75328 2.33564e-21)
(7.6162 0.131316 0)
(7.68993 0.149154 4.86106e-21)
(7.82703 0.167054 -4.1342e-21)
(7.99815 0.177277 0)
(8.18046 0.157501 -1.60498e-20)
(8.35831 0.104431 -7.41945e-21)
(8.49775 -0.00700507 7.41571e-21)
(8.52734 -0.183244 0)
(8.37909 -0.367612 0)
(8.05085 -0.500789 1.29398e-20)
(7.58777 -0.56636 -1.14896e-20)
(7.04251 -0.577301 -3.03121e-21)
(6.45676 -0.549031 -3.06501e-21)
(5.86794 -0.488492 -1.51268e-20)
(5.31138 -0.39545 1.20452e-20)
(4.8333 -0.256716 7.27754e-23)
(4.46874 -0.0466864 8.76254e-21)
(4.32586 0.317073 -5.82766e-21)
(4.33885 0.891505 -4.14244e-21)
(4.87023 3.24261 -1.56957e-22)
(3.12245 0.0391869 4.8293e-22)
(3.19795 0.0437306 -1.16e-21)
(3.29837 0.0438978 0)
(3.40015 0.0388098 4.38589e-21)
(3.49425 0.0254641 -4.98777e-21)
(3.57072 0.0033341 5.68579e-21)
(3.60038 -0.0304099 0)
(3.54781 -0.0784353 2.37162e-21)
(3.38977 -0.120659 -2.37011e-21)
(3.1399 -0.140892 0)
(2.83742 -0.138865 0)
(2.52139 -0.123478 -3.02103e-21)
(2.21786 -0.102189 8.91281e-21)
(1.9439 -0.0775283 8.92993e-21)
(1.71329 -0.0482444 -5.96767e-21)
(1.54467 -0.00806499 0)
(1.47033 0.0560697 5.74337e-21)
(1.5836 0.187995 -2.88084e-21)
(2.04211 0.494066 -7.94411e-22)
(2.22605 1.75541 2.37481e-21)
(6.25913 -1.28857 0.56927)
(4.97485 -2.14536 0.467848)
(2.79536 -0.437302 0.596284)
(6.34743 -2.28139 -0.520047)
(6.25913 -1.28705 -0.56901)
(4.97468 -2.14517 -0.467554)
(2.79188 -0.430903 -0.591827)
(5.60996 0.544605 0.679095)
(2.41256 0.0222212 0.591452)
(3.31851 0.791944 0.728765)
(5.96849 -0.244518 -0.632279)
(5.60904 0.545709 -0.679093)
(2.40739 0.0248321 -0.592432)
(3.31709 0.792383 -0.728821)
(2.85573 -1.90747 0.322639)
(1.79976 -1.30615 0.226484)
(3.33542 -2.27367 -0.306147)
(2.85364 -1.90909 -0.323149)
(1.7986 -1.30588 -0.226529)
(0.968767 -0.195838 0.182967)
(2.71247 -1.59969 -0.436727)
(0.971514 -0.19393 -0.182207)
(1.09928 0.49666 0.802698)
(0.0272221 -0.0263414 0.446845)
(1.09892 0.49658 -0.802871)
(0.0275013 -0.0261011 -0.444564)
(1.51785 0.717101 0.71814)
(0.281551 0.128701 0.653176)
(0.665828 0.309627 0.690282)
(1.08636 0.587848 -0.713436)
(1.51782 0.717177 -0.718142)
(0.28178 0.128892 -0.652543)
(0.665957 0.309736 -0.690049)
(1.35103 -0.995972 0.181477)
(0.725785 -0.64575 0.12147)
(2.15114 -1.68678 -0.166892)
(1.35059 -0.995123 -0.18144)
(0.725007 -0.645678 -0.121403)
(0.83106 -0.65437 -0.214825)
(-0.00986908 -0.0412108 0.164977)
(-0.00964656 -0.0411363 -0.163857)
(0.135159 -0.0205867 0.674628)
(-0.0081507 -0.0676291 0.463587)
(-0.0106709 -0.100247 0.673702)
(-0.0137745 -0.0768936 -0.6104)
(0.135255 -0.0205667 -0.67456)
(-0.00814955 -0.0676172 -0.463935)
(-0.0106176 -0.100202 -0.673562)
(0.697357 -0.599218 0.130452)
(0.618244 -0.73058 0.0345845)
(1.60522 -1.56425 -0.0794712)
(0.697186 -0.599139 -0.130434)
(0.618181 -0.730405 -0.0345941)
(0.259085 -0.216409 -0.0583554)
(-0.0972044 -0.118771 0.64585)
(-0.00586473 -0.00572642 0.410234)
(-0.0963019 -0.0423711 0.634967)
(-0.011166 -0.0579203 -0.430936)
(-0.0971441 -0.118758 -0.645427)
(-0.00586033 -0.00577098 -0.410096)
(-0.0961828 -0.042357 -0.634364)
(0.757604 -1.04651 0.0313775)
(0.815298 -1.46071 -0.0353133)
(0.0803563 -0.183062 -0.0143573)
(1.26164 -1.86025 0.00877521)
(0.757588 -1.04599 -0.0314099)
(0.815165 -1.46051 0.0353061)
(0.0802607 -0.183522 0.0143803)
(0.334787 -0.46527 -0.0299349)
(-0.0745743 0.0128685 0.639701)
(-0.00920132 0.0410321 0.484099)
(-0.0526758 0.0613047 0.65561)
(-0.0050867 0.00856863 -0.409213)
(-0.0744747 0.0128697 -0.639316)
(-0.00915026 0.0410461 -0.485504)
(-0.0526011 0.0613163 -0.655772)
(0.285051 -0.661354 -0.0895343)
(0.606167 -1.18214 0.061117)
(0.285703 -0.660497 0.0894202)
(0.00510142 0.0268926 0.730228)
(0.00511559 0.026835 -0.730101)
(0.071612 0.00230526 0.672166)
(0.0764759 -0.0255512 0.663921)
(0.200134 -0.0882639 0.703871)
(-0.00387141 0.040848 -0.526189)
(0.071643 0.00230118 -0.672036)
(0.0764635 -0.0255677 -0.663786)
(0.200152 -0.0882866 -0.703811)
(0.404288 -0.801505 -0.110739)
(0.737477 -0.396263 -0.12028)
(0.265473 -0.462133 -0.125915)
(0.805517 -0.82017 0.110864)
(0.404074 -0.801413 0.110727)
(0.737192 -0.396334 0.120265)
(0.26515 -0.461993 0.125904)
(0.0369512 -0.147608 -0.113377)
(0.193659 -0.508917 0.101998)
(0.036777 -0.146977 0.113321)
(0.0569208 -0.00913582 0.339628)
(0.23664 -0.11256 0.768362)
(0.0568682 -0.00910525 -0.339094)
(0.236634 -0.112656 -0.768291)
(0.198302 -0.0887317 0.717416)
(0.356206 -0.224436 0.712731)
(0.540031 -0.301575 0.7488)
(0.198292 -0.0887483 -0.717403)
(0.356146 -0.22444 -0.712743)
(0.540012 -0.301579 -0.748804)
(0.138384 -0.122657 -0.143255)
(1.12875 1.31007 -0.125036)
(0.0707355 0.356294 -0.146007)
(0.878845 0.411853 0.143597)
(0.138199 -0.122382 0.143314)
(1.12844 1.30995 0.12503)
(0.0706957 0.356123 0.146037)
(0.0272685 -0.0766883 0.0941506)
(0.358977 -0.147119 0.814526)
(0.359097 -0.147282 -0.814179)
(0.0849462 -0.067069 0.648361)
(0.532865 -0.246761 0.801972)
(0.739967 -0.312756 0.776779)
(0.0849218 -0.0670441 -0.648421)
(0.532761 -0.246817 -0.801998)
(0.739918 -0.312743 -0.77676)
(0.698946 -0.318128 0.765833)
(1.10225 -0.527487 0.787811)
(1.42405 -0.656085 0.796705)
(0.310505 -0.13594 -0.739157)
(0.6989 -0.318118 -0.765836)
(1.10219 -0.527457 -0.787814)
(1.42401 -0.656078 -0.796706)
(0.158381 0.687792 -0.134846)
(4.26359 4.12024 0.0692557)
(2.44227 3.17324 0.301845)
(2.21919 2.75943 0.07935)
(0.158343 0.687378 0.134905)
(4.26344 4.12027 -0.0692278)
(2.44364 3.1737 -0.302257)
(1.242 -0.383829 1.13684)
(1.24271 -0.384138 -1.13656)
(0.0762925 -0.0283877 0.29365)
(1.65113 -0.664969 1.0816)
(1.74266 -0.587076 0.969625)
(0.0762466 -0.0283687 -0.293677)
(1.65152 -0.665466 -1.08105)
(1.74237 -0.587095 -0.969643)
(1.04513 -0.411782 0.850428)
(2.16152 -0.827162 0.946448)
(2.63282 -0.907995 0.910252)
(0.187099 -0.115967 -0.684248)
(1.04505 -0.411696 -0.850389)
(2.16136 -0.82715 -0.946423)
(2.63274 -0.907987 -0.910244)
(5.15938 -0.270595 1.0115)
(10.0525 2.51454 0.728202)
(9.53755 0.75836 0.905253)
(6.7868 2.80648 -0.628275)
(5.16046 -0.270763 -1.01098)
(10.0526 2.51441 -0.728217)
(9.53771 0.75836 -0.905154)
(0.643457 -0.408917 0.00045191)
(2.71364 -1.60011 -0.000179852)
(2.04635 -1.09715 0.462435)
(1.50188 -1.00639 0.333681)
(2.04275 -1.09437 0.000887927)
(1.50628 -1.00959 -0.000927092)
(0.641962 -0.408752 0.162954)
(0.684009 0.206552 0.326065)
(0.682906 0.207423 -2.64999e-05)
(2.6918 -2.08951 0.143064)
(2.39817 -2.08288 0.102428)
(1.81177 -1.50748 0.118713)
(3.02448 -2.44742 -0.129968)
(2.69166 -2.08957 -0.143071)
(2.39799 -2.08282 -0.102427)
(1.81146 -1.50746 -0.118718)
(0.832501 -0.655912 0.000105985)
(0.37944 -0.240376 0.115776)
(0.289648 -0.27378 0.0619531)
(0.379814 -0.240345 0.000111709)
(0.289732 -0.274516 -9.70835e-05)
(0.0109292 -0.0952137 7.66585e-05)
(-0.0139003 -0.0765665 -0.000102808)
(0.0520227 -0.0727239 0.71044)
(-0.00812311 -0.0683317 0.575383)
(0.0523542 -0.0722807 -4.75436e-05)
(-0.00796372 -0.0678781 3.96077e-05)
(0.0108834 -0.0954955 0.685568)
(2.04361 -2.12143 0.0606249)
(1.80898 -2.21544 0.017571)
(1.42262 -1.71419 0.0350405)
(2.28167 -2.44906 -0.0441862)
(2.04357 -2.12127 -0.0606245)
(1.80906 -2.21533 -0.0175697)
(1.42262 -1.71395 -0.0350405)
(0.258921 -0.216217 6.7466e-05)
(-0.0325193 -0.0841421 1.72624e-05)
(-0.0111314 -0.0579105 1.16464e-07)
(-0.0364135 -0.114478 0.606732)
(-0.00835477 -0.0396648 0.418464)
(-0.0364185 -0.11447 -6.57663e-06)
(-0.0083115 -0.0396732 4.44042e-06)
(-0.0325361 -0.0842048 0.587296)
(0.334759 -0.465371 0.000199887)
(0.141248 -0.245109 -0.00404659)
(0.141144 -0.245527 -6.65209e-05)
(-0.0241122 0.0346055 1.39643e-06)
(-0.00505026 0.00853785 -1.75044e-06)
(-0.0225547 0.0132213 0.574045)
(-0.00645244 0.0203625 0.417582)
(-0.0225109 0.0131978 4.99826e-06)
(-0.00642719 0.020365 2.09205e-07)
(-0.0241375 0.0346335 0.588567)
(0.839944 -1.51577 -0.0689801)
(0.921023 -1.28919 -0.0892079)
(0.606304 -1.18348 -0.0878885)
(1.11459 -1.59016 0.0725157)
(0.840066 -1.51562 0.0689738)
(0.921085 -1.28925 0.0892081)
(0.606581 -1.18339 0.087873)
(0.22927 -0.553252 -0.000114083)
(0.607043 -1.18308 5.88706e-05)
(0.425483 -0.878018 -0.0430432)
(0.457842 -0.987782 -0.0779493)
(0.425743 -0.878537 0.000257439)
(0.457844 -0.987834 -9.22369e-05)
(0.229612 -0.553167 -0.072852)
(0.0245832 0.0333373 -3.11607e-06)
(-0.00387738 0.0407341 2.10437e-05)
(0.0111294 0.0582777 0.646366)
(-0.0103008 0.0346538 0.614492)
(0.0111176 0.0583338 3.22244e-05)
(-0.0103008 0.0345219 -3.37592e-05)
(0.0244977 0.0334733 0.704557)
(0.0188745 -0.0925648 -0.000116256)
(0.193519 -0.509448 0.000122084)
(0.0638312 -0.211365 -0.0600522)
(0.0879583 -0.327089 -0.129006)
(0.0640144 -0.21132 0.000191954)
(0.0871379 -0.326638 -0.000281756)
(0.0191521 -0.0925148 -0.0327333)
(0.115583 -0.0930409 -6.34992e-05)
(0.0424348 -0.0362571 0.31772)
(0.0626835 -0.0572295 0.53238)
(0.0424759 -0.0364386 9.21281e-06)
(0.0625949 -0.0572058 -4.95616e-05)
(0.11542 -0.0927976 0.729229)
(0.0270808 -0.0767251 2.82125e-05)
(0.0105463 -0.000646939 -0.0428865)
(0.0103008 -0.000448576 -1.06616e-05)
(0.0747454 -0.0307551 -9.59483e-06)
(0.0364023 -0.0117318 0.248906)
(0.0365167 -0.0116649 -3.42254e-05)
(0.074697 -0.0311016 0.582564)
(0.113652 -0.0307351 -5.67153e-05)
(0.113614 -0.0310324 0.31701)
(0.803498 -0.384574 -0.000261397)
(0.187251 -0.116538 -1.72926e-05)
(0.289791 -0.135832 0.896598)
(0.628445 -0.329301 0.914478)
(0.289881 -0.136418 8.14012e-05)
(0.627934 -0.329709 -0.000129747)
(0.803459 -0.383855 0.981726)
(1.99592 -0.822107 0.83936)
(3.14302 -1.17298 0.861627)
(3.51887 -1.31379 0.857887)
(1.56877 -0.638345 -0.816941)
(1.99591 -0.822136 -0.839324)
(3.14294 -1.17299 -0.861657)
(3.51883 -1.31383 -0.857897)
(7.49884 5.41026 0.551342)
(9.08524 3.80706 0.382502)
(9.62321 4.06837 0.526494)
(7.53208 4.44018 -0.268485)
(7.49913 5.40867 -0.5514)
(9.08525 3.80699 -0.382493)
(9.62323 4.06762 -0.526529)
(7.45766 1.4156 -0.000431398)
(6.80585 2.80617 -0.00104554)
(5.16208 1.07219 1.08859)
(8.07862 3.09894 0.840916)
(5.17798 1.0627 0.00270486)
(8.08395 3.09965 -0.000249443)
(7.45104 1.42612 0.978236)
(5.12257 -1.15945 1.00301)
(8.94076 -0.368445 0.950611)
(8.53457 -1.02002 0.946642)
(5.22426 -0.964035 -1.00926)
(5.12282 -1.15965 -1.00285)
(8.94103 -0.368587 -0.950582)
(8.53477 -1.02018 -0.946639)
(4.88809 -1.40796 -0.000561718)
(2.79697 -0.43233 0.00094664)
(4.464 -0.654668 0.620575)
(3.78252 -1.23599 0.470255)
(4.46489 -0.651041 0.000248894)
(3.78531 -1.23611 -0.00118574)
(4.88617 -1.40612 0.572462)
(4.88796 -1.40693 0.000587102)
(2.79462 -0.429405 -0.000165354)
(4.46237 -0.64997 -0.619946)
(3.78124 -1.23444 -0.47)
(4.46392 -0.648902 0.000172701)
(3.78451 -1.23524 0.000973791)
(4.88604 -1.4043 -0.572357)
(3.88513 0.285717 -0.000152603)
(2.4084 0.0257694 0.000291396)
(4.08267 -0.0612994 0.646076)
(2.28697 0.373119 0.70344)
(4.08087 -0.058343 -0.00013723)
(2.28372 0.375219 -0.000208828)
(3.88616 0.284617 0.724268)
(3.88395 0.286622 0.00037705)
(2.40595 0.0270984 -0.000134876)
(4.07995 -0.0585645 -0.646236)
(2.28372 0.37414 -0.703804)
(4.07958 -0.0570112 0.000369076)
(2.28219 0.375719 0.000366105)
(3.88363 0.286429 -0.724518)
(1.09281 -0.965522 0.000231303)
(0.76901 -0.587978 0.191798)
(0.409527 -0.389415 0.0899632)
(0.765628 -0.588345 -0.000529309)
(0.408769 -0.39016 -6.40957e-05)
(1.09635 -0.964755 0.283258)
(1.0911 -0.965356 -0.000571414)
(0.764597 -0.588459 -0.191876)
(0.408474 -0.388988 -0.0899583)
(0.763241 -0.588584 0.000110203)
(0.408239 -0.389919 1.13596e-05)
(1.09296 -0.964604 -0.283163)
(0.971671 -0.194017 0.000300218)
(1.78906 -0.66357 0.30454)
(1.78668 -0.659975 -0.00110361)
(0.334869 -0.219166 0.0886825)
(0.333429 -0.218483 -0.000367914)
(0.644505 -0.40783 0.000166573)
(2.71383 -1.60129 -0.000401415)
(2.0438 -1.09063 -0.463693)
(1.50808 -1.0124 -0.332025)
(2.04067 -1.09102 -0.000754713)
(1.50924 -1.01272 0.000221973)
(0.644072 -0.406625 -0.162799)
(0.972696 -0.193484 3.61992e-05)
(1.78369 -0.659126 -0.305779)
(1.78312 -0.658478 0.000394686)
(0.330707 -0.218732 -0.0872078)
(0.331193 -0.218304 -0.000215997)
(0.189666 0.125662 -1.42059e-06)
(1.09937 0.497614 -0.000307074)
(0.892855 0.401528 0.72566)
(0.312486 0.199285 0.770694)
(0.891891 0.402341 -0.00018809)
(0.312547 0.200176 9.30389e-05)
(0.189651 0.125032 0.342274)
(0.0273089 -0.0259917 6.94482e-05)
(0.0870919 0.0301638 0.598525)
(0.0872154 0.0305125 -6.38979e-05)
(0.683059 0.206542 -0.326238)
(0.682474 0.207415 3.41741e-06)
(0.189649 0.125656 -2.63112e-06)
(1.09908 0.497579 0.00034143)
(0.892483 0.401471 -0.725915)
(0.312436 0.199219 -0.77088)
(0.891648 0.402297 0.000205226)
(0.312528 0.200185 -8.25906e-05)
(0.189601 0.124987 -0.342327)
(0.0273726 -0.0259288 -7.88861e-05)
(0.0871605 0.0301661 -0.598854)
(0.0872458 0.030551 7.90962e-05)
(1.05299 -0.922493 0.00014512)
(0.724486 -0.645817 -9.97812e-05)
(1.3172 -1.1403 0.156936)
(0.458508 -0.414704 0.0764795)
(1.31703 -1.14111 0.000213377)
(0.458025 -0.41571 -0.000232843)
(1.05352 -0.921042 0.142041)
(0.669908 -0.51599 4.26129e-05)
(0.291771 -0.189344 0.0859019)
(0.18347 -0.142391 0.0407548)
(0.292162 -0.189075 0.000223141)
(0.183684 -0.142608 -4.49403e-05)
(0.669163 -0.515296 0.151573)
(1.05294 -0.922809 -0.000206119)
(0.724084 -0.645768 3.64257e-05)
(1.31678 -1.14058 -0.156873)
(0.457674 -0.414872 -0.0763894)
(1.3168 -1.14123 -0.000248884)
(0.457591 -0.415787 0.000135052)
(1.0535 -0.921726 -0.141914)
(0.670458 -0.516605 -7.30672e-05)
(0.292103 -0.189066 -0.085952)
(0.183103 -0.14267 -0.0405788)
(0.292285 -0.188895 -2.72687e-05)
(0.183481 -0.142743 -6.77722e-05)
(0.670423 -0.516624 -0.151395)
(0.832082 -0.655581 -0.000149765)
(0.379238 -0.240258 -0.115781)
(0.289499 -0.273646 -0.0619554)
(0.379601 -0.24022 -0.000137165)
(0.289572 -0.274357 8.28241e-05)
(-0.00979819 -0.0412448 -3.02888e-05)
(-0.00975514 -0.0412358 8.4342e-07)
(-0.0193316 -0.123423 -1.96324e-05)
(-0.00814272 -0.0676536 1.40937e-05)
(-0.0110485 -0.0707863 0.509667)
(-0.0189964 -0.127557 0.644275)
(-0.0110712 -0.0707821 1.94833e-06)
(-0.0190251 -0.127548 2.97264e-05)
(-0.0193113 -0.123367 0.672266)
(0.0109794 -0.095181 -8.04709e-05)
(-0.0138205 -0.0765539 9.38914e-05)
(0.0521946 -0.0726908 -0.710346)
(-0.00802 -0.0682722 -0.575575)
(0.0524484 -0.0722479 3.01547e-05)
(-0.00793707 -0.0678643 -4.09634e-05)
(0.0109818 -0.0954177 -0.685648)
(-0.0193047 -0.123402 2.11605e-05)
(-0.00814081 -0.0676597 -1.16058e-05)
(-0.011025 -0.0707646 -0.509821)
(-0.0189915 -0.12753 -0.644401)
(-0.0110635 -0.07078 2.21999e-07)
(-0.0190091 -0.127553 -2.50138e-05)
(-0.019271 -0.123309 -0.672347)
(0.669445 -0.620031 -0.000162162)
(0.697844 -0.599785 0.000242258)
(1.11618 -0.996226 0.116051)
(0.252213 -0.224181 0.0433682)
(1.1171 -0.996999 7.37572e-05)
(0.252663 -0.224653 -2.0731e-06)
(0.669117 -0.61985 0.0740343)
(0.635326 -0.684963 0.000191575)
(0.618435 -0.729902 -0.000286603)
(1.00764 -1.12511 0.0617991)
(0.226571 -0.262497 0.0232397)
(1.00831 -1.12584 1.44658e-05)
(0.226998 -0.262851 -9.59952e-06)
(0.635187 -0.684567 0.0715164)
(0.315827 -0.313678 9.65307e-06)
(0.316036 -0.313899 0.0274867)
(0.669398 -0.619987 0.000155218)
(0.69774 -0.599725 -0.000257622)
(1.116 -0.996122 -0.116028)
(0.252194 -0.224174 -0.043366)
(1.11698 -0.996919 -8.6809e-05)
(0.252651 -0.224645 -1.53314e-06)
(0.669035 -0.619782 -0.0740265)
(0.635297 -0.684921 -0.00018974)
(0.618393 -0.729813 0.000295036)
(1.00757 -1.12493 -0.0618046)
(0.226558 -0.262468 -0.0232423)
(1.00826 -1.12573 -9.48372e-06)
(0.22699 -0.262836 1.05102e-05)
(0.635141 -0.684494 -0.0715214)
(0.315804 -0.313654 -1.13089e-05)
(0.315992 -0.313853 -0.0274855)
(0.258839 -0.216188 -7.66752e-05)
(-0.0298377 -0.046933 6.78433e-06)
(-0.00581357 -0.00575386 -6.67531e-06)
(-0.00685738 -0.02164 0.413525)
(-0.0266385 -0.0171858 0.573194)
(-0.00680316 -0.0216957 -1.03207e-06)
(-0.0265856 -0.0172286 -3.1537e-06)
(-0.0298729 -0.046879 0.577987)
(-0.0325326 -0.0842071 -2.0832e-05)
(-0.0111482 -0.057952 1.4626e-05)
(-0.0364675 -0.114499 -0.60667)
(-0.00838661 -0.0397793 -0.418265)
(-0.0364238 -0.114514 1.47346e-05)
(-0.00833732 -0.0397491 3.43721e-07)
(-0.0325825 -0.0842852 -0.586975)
(-0.0298475 -0.0469588 -2.04813e-05)
(-0.00583148 -0.0057633 -1.63653e-06)
(-0.00687485 -0.0217496 -0.413365)
(-0.0266003 -0.0172023 -0.572811)
(-0.00683157 -0.0217467 4.83875e-09)
(-0.0265757 -0.017201 -1.50675e-05)
(-0.0298872 -0.0469572 -0.57762)
(0.76024 -1.19906 -0.000106867)
(0.7584 -1.04717 0.000340096)
(1.01086 -1.41996 0.012732)
(0.413854 -0.681207 -0.00586102)
(1.01215 -1.42061 9.45768e-05)
(0.413662 -0.680969 -7.88381e-05)
(0.759841 -1.19893 -0.010672)
(0.538458 -0.915554 0.000134065)
(0.0803234 -0.183674 -9.04895e-05)
(0.250355 -0.437253 0.000470755)
(0.283024 -0.590777 -0.0510266)
(0.250683 -0.43713 0.000283341)
(0.282397 -0.590415 -0.000331894)
(0.537498 -0.915264 -0.0184945)
(0.760372 -1.19898 0.000145169)
(0.758381 -1.04696 -0.000310983)
(1.01105 -1.41962 -0.012755)
(0.413836 -0.680644 0.00578671)
(1.01221 -1.42046 -7.05209e-05)
(0.413663 -0.680791 0.000150468)
(0.760203 -1.19874 0.0106273)
(0.538607 -0.915639 -7.21442e-05)
(0.0803947 -0.183986 3.38259e-05)
(0.250472 -0.437323 -0.000614405)
(0.282382 -0.590539 0.0511063)
(0.250759 -0.437207 -0.000162374)
(0.282223 -0.590348 0.000227572)
(0.537885 -0.915462 0.0184235)
(0.33473 -0.465285 -0.000192302)
(0.141184 -0.244903 0.00403508)
(0.141118 -0.24545 7.85475e-05)
(-0.0236287 0.0576721 9.37963e-06)
(-0.00923133 0.041075 -1.23271e-05)
(-0.00748502 0.0315631 0.447633)
(-0.0218557 0.0716513 0.640811)
(-0.00746597 0.0315341 7.90079e-07)
(-0.0218556 0.0717274 -3.82391e-05)
(-0.0236479 0.057774 0.619903)
(-0.0240987 0.0346373 -4.94706e-06)
(-0.00506031 0.00855597 -3.52192e-06)
(-0.0225116 0.013254 -0.573762)
(-0.00645336 0.0203988 -0.417663)
(-0.0224966 0.0132227 -1.69803e-05)
(-0.00643564 0.0203857 2.90566e-06)
(-0.0241138 0.0346755 -0.58856)
(-0.0236101 0.057697 -1.25002e-05)
(-0.00921779 0.0410677 1.4123e-06)
(-0.00747266 0.0315496 -0.448027)
(-0.0217742 0.0717107 -0.641931)
(-0.00746676 0.0315449 -2.89238e-06)
(-0.0218276 0.0717416 2.78496e-05)
(-0.0236029 0.0577752 -0.620156)
(0.0630152 -0.173182 -5.70773e-05)
(0.17309 -0.400277 -0.0322666)
(0.172522 -0.399915 0.000116427)
(0.0632256 -0.172913 -0.0242122)
(0.167064 -0.378234 9.51417e-05)
(0.285706 -0.660903 3.57319e-05)
(0.366531 -0.78658 -0.0835597)
(0.110973 -0.279953 -0.0615605)
(0.367016 -0.786001 2.75124e-05)
(0.111342 -0.279474 0.000109724)
(0.16689 -0.378952 -0.063403)
(0.229181 -0.55298 0.000113893)
(0.607031 -1.18286 -5.18304e-05)
(0.425295 -0.87761 0.0430373)
(0.457878 -0.98718 0.0779367)
(0.425688 -0.87835 -0.00025274)
(0.457868 -0.987547 0.000107633)
(0.229394 -0.55254 0.0728479)
(0.0629699 -0.173117 4.43066e-05)
(0.17282 -0.399956 0.0322651)
(0.17244 -0.39979 -0.000119688)
(0.063114 -0.172741 0.0242142)
(0.167083 -0.377879 -6.41672e-05)
(0.286014 -0.660471 5.5574e-05)
(0.366828 -0.785795 0.0835189)
(0.111221 -0.278923 0.0613985)
(0.367161 -0.785629 1.81547e-05)
(0.111461 -0.27897 1.03243e-05)
(0.166923 -0.378165 0.0633802)
(-0.0078805 0.0188353 0.192627)
(-0.00790214 0.0188756 -2.45919e-06)
(0.00537591 0.0264312 -2.29093e-05)
(-0.00697258 0.0255668 0.508609)
(0.0131657 0.00873697 0.313726)
(-0.00696845 0.0253506 7.47228e-05)
(0.0132644 0.00869072 -2.34579e-05)
(-0.00784145 0.0187897 -0.191852)
(-0.00788127 0.0188542 -1.17987e-06)
(0.00538165 0.0264024 2.89062e-05)
(-0.0069428 0.025505 -0.507792)
(0.0131725 0.00872282 -0.313812)
(-0.00695111 0.0253235 -6.85323e-05)