/*--------------------------------*- C++ -*----------------------------------*\
  =========                 |
  \\      /  F ield         | OpenFOAM: The Open Source CFD Toolbox
   \\    /   O peration     | Website:  https://openfoam.org
    \\  /    A nd           | Version:  7
     \\/     M anipulation  |
\*---------------------------------------------------------------------------*/
FoamFile
{
    version     2.0;
    format      ascii;
    class       volScalarField;
    location    "0.5";
    object      p;
}
// * * * * * * * * * * * * * * * * * * * * * * * * * * * * * * * * * * * * * //

dimensions      [0 2 -2 0 0 0 0];

internalField   nonuniform List<scalar> 
400
(
-0.00559288
-0.0168195
-0.0280937
-0.0394358
-0.0508901
-0.0625181
-0.0743986
-0.0866369
-0.0993696
-0.112787
-0.127149
-0.142794
-0.160325
-0.180181
-0.204397
-0.231815
-0.273693
-0.305235
-0.403952
-0.533713
-0.00558927
-0.0168011
-0.0280689
-0.0394103
-0.0508655
-0.062497
-0.0743827
-0.0866284
-0.0993668
-0.112784
-0.127142
-0.142722
-0.16024
-0.179695
-0.204112
-0.230013
-0.274524
-0.309527
-0.429705
-0.44541
-0.005549
-0.0166693
-0.0278392
-0.0390696
-0.0503884
-0.0618456
-0.0735015
-0.0854415
-0.0977622
-0.110602
-0.124158
-0.138568
-0.154443
-0.171338
-0.191772
-0.211616
-0.240735
-0.259789
-0.294017
-0.310167
-0.00547829
-0.0164462
-0.0274434
-0.0384728
-0.0495455
-0.0606898
-0.0719353
-0.0833316
-0.0949176
-0.106761
-0.118938
-0.131451
-0.144576
-0.15772
-0.171989
-0.184256
-0.197745
-0.202645
-0.205598
-0.193671
-0.00539079
-0.016174
-0.0269579
-0.0377348
-0.0484996
-0.0592543
-0.0699927
-0.0807217
-0.0914162
-0.10207
-0.112628
-0.12298
-0.133073
-0.142296
-0.150733
-0.156212
-0.159065
-0.153912
-0.142814
-0.117616
-0.00529985
-0.0158927
-0.0264551
-0.0369679
-0.0474105
-0.0577596
-0.0679736
-0.0780177
-0.0878085
-0.0972737
-0.106251
-0.114545
-0.121893
-0.127684
-0.131568
-0.131893
-0.128374
-0.117326
-0.101497
-0.0735881
-0.0052157
-0.015633
-0.0259909
-0.0362587
-0.0464028
-0.0563774
-0.0661106
-0.0755315
-0.0845101
-0.0929214
-0.100531
-0.107085
-0.112216
-0.115328
-0.115977
-0.112802
-0.105726
-0.0917889
-0.0748805
-0.0479055
-0.00514597
-0.0154179
-0.0256068
-0.0356717
-0.0455686
-0.0552341
-0.0645729
-0.0734862
-0.0818105
-0.0893836
-0.0959263
-0.101152
-0.104655
-0.10586
-0.104364
-0.098996
-0.0899929
-0.074789
-0.057918
-0.0326189
-0.0050963
-0.0152649
-0.0253335
-0.0352541
-0.0449751
-0.0544213
-0.0634816
-0.0720385
-0.0799073
-0.0869027
-0.0927216
-0.0970606
-0.0995049
-0.0995051
-0.0967173
-0.090093
-0.080093
-0.064394
-0.0478013
-0.0238543
-0.00507061
-0.0151859
-0.0251923
-0.0350379
-0.0446676
-0.0540001
-0.0629165
-0.0712901
-0.0789257
-0.0856274
-0.0910817
-0.0949787
-0.096904
-0.0963236
-0.0929305
-0.0857378
-0.0753154
-0.0594589
-0.0430612
-0.0198241
-0.00507092
-0.015187
-0.025194
-0.0350395
-0.044669
-0.0540014
-0.0629177
-0.0712913
-0.0789269
-0.0856284
-0.0910826
-0.0949795
-0.0969047
-0.0963242
-0.092931
-0.0857383
-0.0753159
-0.0594594
-0.0430617
-0.0198246
-0.0050973
-0.0152685
-0.0253386
-0.035259
-0.0449793
-0.054425
-0.0634852
-0.0720421
-0.0799108
-0.0869059
-0.0927245
-0.097063
-0.099507
-0.0995069
-0.096719
-0.0900946
-0.0800945
-0.0643954
-0.0478027
-0.0238558
-0.00514775
-0.0154243
-0.0256156
-0.03568
-0.0455756
-0.0552402
-0.0645788
-0.0734921
-0.0818163
-0.0893889
-0.095931
-0.101156
-0.104658
-0.105863
-0.104367
-0.0989987
-0.0899953
-0.0747914
-0.0579203
-0.0326212
-0.00521834
-0.0156426
-0.0260037
-0.0362704
-0.0464124
-0.0563858
-0.0661188
-0.0755397
-0.0845181
-0.0929287
-0.100537
-0.10709
-0.112221
-0.115333
-0.115981
-0.112805
-0.105729
-0.091792
-0.0748835
-0.0479085
-0.00530325
-0.0159053
-0.0264715
-0.0369824
-0.0474224
-0.0577702
-0.0679841
-0.0780282
-0.0878186
-0.0972829
-0.106259
-0.114552
-0.121899
-0.12769
-0.131573
-0.131897
-0.128378
-0.117329
-0.101501
-0.0735917
-0.00539465
-0.0161885
-0.0269765
-0.0377514
-0.0485135
-0.0592671
-0.0700054
-0.0807344
-0.0914283
-0.102081
-0.112637
-0.122988
-0.13308
-0.142302
-0.150738
-0.156217
-0.159069
-0.153917
-0.142818
-0.117621
-0.00548214
-0.0164605
-0.027462
-0.0384899
-0.0495607
-0.0607043
-0.07195
-0.0833463
-0.0949317
-0.106774
-0.11895
-0.13146
-0.144584
-0.157727
-0.171995
-0.184261
-0.19775
-0.20265
-0.205603
-0.193676
-0.00555248
-0.0166812
-0.0278552
-0.0390859
-0.0504043
-0.0618617
-0.073518
-0.0854579
-0.0977777
-0.110616
-0.12417
-0.138579
-0.154452
-0.171345
-0.191779
-0.211622
-0.24074
-0.259794
-0.294022
-0.310172
-0.00559233
-0.0168102
-0.0280822
-0.0394255
-0.0508818
-0.0625142
-0.0744003
-0.0866458
-0.0993831
-0.112798
-0.127155
-0.142733
-0.160249
-0.179703
-0.204118
-0.230019
-0.27453
-0.309532
-0.42971
-0.445414
-0.00559559
-0.0168275
-0.0281063
-0.0394516
-0.0509078
-0.0625368
-0.0744173
-0.0866549
-0.0993861
-0.112802
-0.127162
-0.142805
-0.160334
-0.180189
-0.204404
-0.231821
-0.273698
-0.30524
-0.403957
-0.533717
)
;

boundaryField
{
    movingWall
    {
        type            zeroGradient;
    }
    fixedWalls
    {
        type            zeroGradient;
    }
    frontAndBack
    {
        type            empty;
    }
    right
    {
        type            fixedValue;
        value           uniform 0;
    }
    left
    {
        type            zeroGradient;
    }
}


// ************************************************************************* //
