/*--------------------------------*- C++ -*----------------------------------*\
  =========                 |
  \\      /  F ield         | OpenFOAM: The Open Source CFD Toolbox
   \\    /   O peration     | Website:  https://openfoam.org
    \\  /    A nd           | Version:  7
     \\/     M anipulation  |
\*---------------------------------------------------------------------------*/
FoamFile
{
    version     2.0;
    format      ascii;
    class       surfaceScalarField;
    location    "0.5";
    object      phi;
}
// * * * * * * * * * * * * * * * * * * * * * * * * * * * * * * * * * * * * * //

dimensions      [0 3 -1 0 0 0 0];

internalField   nonuniform List<scalar> 
760
(
0.00133805
-2.9742e-07
0.00133857
-5.16985e-07
0.0013395
-9.3543e-07
0.00134105
-1.54799e-06
0.00134343
-2.3846e-06
0.00134694
-3.5011e-06
0.00135194
-5.00142e-06
0.00135893
-6.99556e-06
0.00136864
-9.70796e-06
0.00138201
-1.33708e-05
0.00140043
-1.84208e-05
0.0014261
-2.56642e-05
0.00146122
-3.51196e-05
0.00151308
-5.18659e-05
0.00157967
-6.65889e-05
0.00169893
-0.00011926
0.00180134
-0.000102404
0.00217478
-0.000373443
0.00201806
0.000156714
-0.00298194
0.00346229
-6.6281e-07
0.00346292
-1.15192e-06
0.00346411
-2.12775e-06
0.00346616
-3.59333e-06
0.00346939
-5.61964e-06
0.00347423
-8.33434e-06
0.00348121
-1.19815e-05
0.00349104
-1.6829e-05
0.00350472
-2.33866e-05
0.00352355
-3.21988e-05
0.00354933
-4.42021e-05
0.00358486
-6.11937e-05
0.00363287
-8.31299e-05
0.00370171
-0.000120706
0.00379063
-0.00015551
0.00393939
-0.000268024
0.00410255
-0.000265557
0.00453316
-0.000804063
0.00478224
-9.23627e-05
-0.00319969
0.00478936
-9.58317e-07
0.00478983
-1.62239e-06
0.0047907
-2.99554e-06
0.00479221
-5.10907e-06
0.00479466
-8.06808e-06
0.00479838
-1.2052e-05
0.0048038
-1.73999e-05
0.00481147
-2.45047e-05
0.00482215
-3.40592e-05
0.00483679
-4.68389e-05
0.00485664
-6.40543e-05
0.00488354
-8.80904e-05
0.00491917
-0.000118762
0.00496808
-0.000169616
0.00502904
-0.000216469
0.0051165
-0.00035549
0.0052101
-0.000359149
0.00529067
-0.000884637
0.00549226
-0.000293958
-0.00270743
0.00545521
-1.13807e-06
0.00545547
-1.88094e-06
0.00545592
-3.44432e-06
0.0054567
-5.8909e-06
0.00545798
-9.34936e-06
0.00545996
-1.40292e-05
0.00546286
-2.03036e-05
0.00546699
-2.8635e-05
0.0054727
-3.97608e-05
0.00548043
-5.4577e-05
0.00549066
-7.42774e-05
0.00550399
-0.000101429
0.00552068
-0.000135453
0.00554102
-0.000189951
0.00556386
-0.000239306
0.00558142
-0.000373057
0.00560276
-0.000380485
0.00552925
-0.00081113
0.00557961
-0.000344313
-0.00212782
0.00572966
-1.19109e-06
0.00572972
-1.93572e-06
0.00572978
-3.5116e-06
0.00572989
-6.00037e-06
0.00573008
-9.53968e-06
0.0057304
-1.43471e-05
0.00573088
-2.07824e-05
0.00573156
-2.93191e-05
0.00573244
-4.06371e-05
0.0057335
-5.56348e-05
0.00573453
-7.53119e-05
0.00573516
-0.000102054
0.00573468
-0.000134973
0.00573043
-0.000185707
0.00572255
-0.000231421
0.0056934
-0.000343909
0.00566638
-0.000353462
0.00553272
-0.000677474
0.00549982
-0.000311411
-0.001628
0.00582325
-1.12908e-06
0.00582313
-1.81063e-06
0.00582287
-3.25459e-06
0.00582242
-5.54477e-06
0.00582169
-8.81208e-06
0.0058206
-1.32596e-05
0.00581902
-1.9203e-05
0.00581678
-2.70736e-05
0.00581358
-3.74415e-05
0.00580905
-5.11017e-05
0.00580255
-6.88153e-05
0.00579303
-9.25362e-05
0.00577939
-0.000121326
0.00575772
-0.000164036
0.00572887
-0.000202573
0.00567453
-0.000289571
0.00561945
-0.000298387
0.00547412
-0.00053214
0.00541365
-0.000250945
-0.00121435
0.00584846
-9.7073e-07
0.00584818
-1.53411e-06
0.00584765
-2.72762e-06
0.00584673
-4.62392e-06
0.00584525
-7.33335e-06
0.00584302
-1.10247e-05
0.00583977
-1.59495e-05
0.00583515
-2.24575e-05
0.00582869
-3.09861e-05
0.00581975
-4.21587e-05
0.00580745
-5.65135e-05
0.00579039
-7.54767e-05
0.00576732
-9.82522e-05
0.00573423
-0.000130955
0.00569217
-0.000160512
0.00562563
-0.00022303
0.00555682
-0.000229571
0.00541563
-0.000390958
0.00534965
-0.00018496
-0.000864698
0.00585225
-7.3743e-07
0.00585185
-1.13801e-06
0.00585111
-1.98694e-06
0.00584982
-3.33701e-06
0.00584776
-5.26752e-06
0.00584463
-7.89824e-06
0.00584008
-1.14031e-05
0.00583365
-1.6026e-05
0.00582473
-2.2062e-05
0.0058125
-2.99329e-05
0.00579597
-3.99804e-05
0.00577361
-5.31139e-05
0.00574412
-6.87712e-05
0.00570389
-9.07218e-05
0.00565395
-0.00011057
0.00558168
-0.000150759
0.00550691
-0.000154804
0.00537229
-0.000256332
0.00530813
-0.000120803
-0.000556569
0.00585101
-4.52245e-07
0.00585053
-6.58405e-07
0.00584964
-1.09635e-06
0.00584809
-1.79421e-06
0.00584562
-2.79346e-06
0.00584188
-4.15537e-06
0.00583644
-5.96812e-06
0.00582877
-8.35679e-06
0.00581818
-1.14707e-05
0.00580377
-1.55226e-05
0.00578447
-2.06781e-05
0.00575873
-2.73766e-05
0.00572529
-3.53271e-05
0.00568089
-4.63189e-05
0.00562657
-5.62518e-05
0.00555169
-7.58791e-05
0.00547464
-7.77553e-05
0.00534513
-0.000126826
0.00528386
-5.95286e-05
-0.00027271
0.00584974
-1.39734e-07
0.00584921
-1.35143e-07
0.00584825
-1.27453e-07
0.00584657
-1.18497e-07
0.00584388
-1.08586e-07
0.00583983
-9.59173e-08
0.00583394
-7.89899e-08
0.00582564
-5.86904e-08
0.00581421
-3.7697e-08
0.0057987
-1.99029e-08
0.00577803
-5.88432e-09
0.00575065
8.90977e-10
0.00571532
7.89894e-09
0.00566899
5.16286e-09
0.00561273
1.04934e-08
0.00553685
5.57326e-09
0.00545909
6.61544e-09
0.00533225
7.28185e-09
0.00527272
4.45586e-09
8.0545e-09
0.00584975
1.72521e-07
0.00584923
3.90083e-07
0.00584826
8.43998e-07
0.00584658
1.55982e-06
0.00584389
2.57866e-06
0.00583983
3.96562e-06
0.00583394
5.81189e-06
0.00582564
8.24077e-06
0.00581421
1.13962e-05
0.0057987
1.54834e-05
0.00577803
2.06666e-05
0.00575065
2.73785e-05
0.00571532
3.53428e-05
0.00566899
4.63292e-05
0.00561273
5.62727e-05
0.00553685
7.58903e-05
0.00545908
7.77684e-05
0.00533225
0.000126841
0.00527272
5.95374e-05
0.000272726
0.00585106
4.63011e-07
0.00585057
8.76809e-07
0.00584968
1.74314e-06
0.00584812
3.11113e-06
0.00584564
5.06044e-06
0.00584189
7.71525e-06
0.00583645
1.12525e-05
0.00582878
1.59144e-05
0.00581818
2.19907e-05
0.00580377
2.98957e-05
0.00578447
3.99699e-05
0.00575873
5.31163e-05
0.00572529
6.87868e-05
0.00568088
9.07319e-05
0.00562657
0.00011059
0.00555169
0.00015077
0.00547464
0.000154817
0.00534513
0.000256346
0.00528386
0.000120811
0.000556585
0.00585235
7.10599e-07
0.00585194
1.28869e-06
0.00585118
2.50039e-06
0.00584988
4.41374e-06
0.0058478
7.1404e-06
0.00584466
1.08542e-05
0.0058401
1.58095e-05
0.00583366
2.23544e-05
0.00582473
3.09208e-05
0.0058125
4.21254e-05
0.00579597
5.65051e-05
0.0057736
7.54803e-05
0.00574412
9.82679e-05
0.00570389
0.000130966
0.00565395
0.000160532
0.00558168
0.000223041
0.00550691
0.000229583
0.00537228
0.000390971
0.00530813
0.000184968
0.000864713
0.00584862
8.97923e-07
0.00584832
1.59353e-06
0.00584776
3.05375e-06
0.00584682
5.35824e-06
0.00584532
8.64017e-06
0.00584307
1.31077e-05
0.0058398
1.90789e-05
0.00583517
2.69831e-05
0.0058287
3.73854e-05
0.00581975
5.10745e-05
0.00580745
6.88103e-05
0.00579039
9.25417e-05
0.00576731
0.000121342
0.00573423
0.000164047
0.00569217
0.000202593
0.00562563
0.000289583
0.00555681
0.000298399
0.00541563
0.000532152
0.00534965
0.000250953
0.00121436
0.00582347
1.007e-06
0.00582331
1.76091e-06
0.00582301
3.34654e-06
0.00582253
5.84431e-06
0.00582177
9.3945e-06
0.00582066
1.42187e-05
0.00581906
2.06783e-05
0.0058168
2.92445e-05
0.00581359
4.05925e-05
0.00580905
5.56154e-05
0.00580255
7.53113e-05
0.00579303
0.000102062
0.00577938
0.00013499
0.00575771
0.000185719
0.00572886
0.00023144
0.00567453
0.000343921
0.00561945
0.000353474
0.00547412
0.000677486
0.00541365
0.000311419
0.00162801
0.0057299
1.01552e-06
0.00572991
1.75852e-06
0.00572993
3.32064e-06
0.00573001
5.7687e-06
0.00573017
9.2335e-06
0.00573046
1.39266e-05
0.00573092
2.02214e-05
0.00573158
2.85778e-05
0.00573245
3.97288e-05
0.0057335
5.45658e-05
0.00573453
7.42809e-05
0.00573515
0.000101438
0.00573467
0.000135469
0.00573043
0.000189963
0.00572255
0.000239323
0.0056934
0.000373067
0.00566638
0.000380496
0.00553272
0.000811141
0.00549982
0.00034432
0.00212783
0.00545544
8.99266e-07
0.00545565
1.5528e-06
0.00545605
2.91284e-06
0.0054568
5.02027e-06
0.00545805
7.98139e-06
0.00546001
1.19753e-05
0.00546289
1.73399e-05
0.005467
2.44647e-05
0.00547269
3.40391e-05
0.00548042
4.68346e-05
0.00549064
6.406e-05
0.00550398
8.80998e-05
0.00552067
0.000118777
0.00554101
0.000169628
0.00556385
0.000216484
0.00558142
0.000355499
0.00560275
0.000359158
0.00552925
0.000884646
0.00557961
0.000293962
0.00270744
0.00478955
6.50021e-07
0.00478998
1.12328e-06
0.00479081
2.08053e-06
0.0047923
3.53645e-06
0.00479472
5.56278e-06
0.00479841
8.28513e-06
0.0048038
1.19448e-05
0.00481146
1.68065e-05
0.00482212
2.33772e-05
0.00483676
3.21989e-05
0.00485661
4.42073e-05
0.00488351
6.12009e-05
0.00491915
8.31402e-05
0.00496806
0.000120714
0.00502902
0.00015552
0.00511649
0.000268029
0.00521009
0.000265563
0.00529067
0.000804068
0.00549226
9.23654e-05
0.0031997
0.00346244
3.00274e-07
0.00346305
5.10186e-07
0.00346422
9.16892e-07
0.00346623
1.52354e-06
0.00346943
2.36075e-06
0.00347423
3.48203e-06
0.00348119
4.98868e-06
0.00349101
6.98888e-06
0.00350468
9.70613e-06
0.00352351
1.3372e-05
0.00354929
1.84232e-05
0.00358482
2.56674e-05
0.00363284
3.51241e-05
0.00370168
5.18695e-05
0.00379061
6.65927e-05
0.00393938
0.000119262
0.00410253
0.000102407
0.00453316
0.000373445
0.00478224
-0.000156713
0.00298194
0.00133813
0.00133864
0.00133956
0.00134109
0.00134345
0.00134693
0.00135192
0.00135891
0.00136861
0.00138198
0.00140041
0.00142607
0.0014612
0.00151307
0.00157966
0.00169892
0.00180133
0.00217477
0.00201806
)
;

boundaryField
{
    movingWall
    {
        type            calculated;
        value           nonuniform 0();
    }
    fixedWalls
    {
        type            calculated;
        value           uniform 0;
    }
    frontAndBack
    {
        type            empty;
        value           nonuniform 0();
    }
    right
    {
        type            calculated;
        value           nonuniform List<scalar> 
20
(
-0.00133775
-0.00346192
-0.00478906
-0.00545503
-0.00572961
-0.00582332
-0.00584862
-0.00585248
-0.00585129
-0.00585005
-0.00585007
-0.00585135
-0.0058526
-0.00584881
-0.00582358
-0.00572991
-0.00545532
-0.0047893
-0.00346209
-0.00133783
)
;
    }
    left
    {
        type            calculated;
        value           nonuniform List<scalar> 
20
(
0.005
0.005
0.005
0.005
0.005
0.005
0.005
0.005
0.005
0.005
0.005
0.005
0.005
0.005
0.005
0.005
0.005
0.005
0.005
0.005
)
;
    }
}


// ************************************************************************* //
