/*--------------------------------*- C++ -*----------------------------------*\
  =========                 |
  \\      /  F ield         | OpenFOAM: The Open Source CFD Toolbox
   \\    /   O peration     | Website:  https://openfoam.org
    \\  /    A nd           | Version:  7
     \\/     M anipulation  |
\*---------------------------------------------------------------------------*/
FoamFile
{
    version     2.0;
    format      ascii;
    class       volVectorField;
    location    "0.5";
    object      U;
}
// * * * * * * * * * * * * * * * * * * * * * * * * * * * * * * * * * * * * * //

dimensions      [0 1 -1 0 0 0 0];

internalField   nonuniform List<vector> 
400
(
(0.267577 -3.32395e-05 0)
(0.267648 -5.88135e-05 0)
(0.26779 -0.000103181 0)
(0.268033 -0.000164499 0)
(0.268418 -0.000246675 0)
(0.268995 -0.000356183 0)
(0.269832 -0.000503218 0)
(0.271011 -0.000699036 0)
(0.272659 -0.00096676 0)
(0.274924 -0.00133169 0)
(0.27806 -0.00184283 0)
(0.282395 -0.00258071 0)
(0.288308 -0.00358725 0)
(0.29711 -0.00530776 0)
(0.307709 -0.00711901 0)
(0.329157 -0.0121235 0)
(0.340245 -0.0124075 0)
(0.407813 -0.0339028 0)
(0.448779 0.00556281 0)
(0.303789 -0.507634 0)
(0.692432 -9.70767e-05 0)
(0.692503 -0.000171056 0)
(0.692678 -0.000314187 0)
(0.692993 -0.00052481 0)
(0.693509 -0.000812257 0)
(0.694296 -0.00119546 0)
(0.69546 -0.00171005 0)
(0.697103 -0.00239384 0)
(0.699434 -0.00332141 0)
(0.702604 -0.00457007 0)
(0.707019 -0.00628405 0)
(0.713088 -0.00872047 0)
(0.720988 -0.0119025 0)
(0.733765 -0.0174082 0)
(0.745221 -0.0224369 0)
(0.780207 -0.0397127 0)
(0.781001 -0.0354254 0)
(0.902827 -0.130566 0)
(0.834478 0.03563 0)
(1.1247 -0.653915 0)
(0.957863 -0.000161258 0)
(0.957907 -0.000278871 0)
(0.958033 -0.000517461 0)
(0.958264 -0.000882495 0)
(0.958653 -0.00139095 0)
(0.95925 -0.00207332 0)
(0.960156 -0.00298956 0)
(0.96142 -0.00420643 0)
(0.963265 -0.00584771 0)
(0.965694 -0.00804583 0)
(0.969155 -0.0110213 0)
(0.973775 -0.0152043 0)
(0.979547 -0.0205454 0)
(0.989344 -0.0296297 0)
(0.995833 -0.0377092 0)
(1.02093 -0.0640729 0)
(1.01523 -0.0627074 0)
(1.08185 -0.173753 0)
(1.01656 -0.0542563 0)
(1.18332 -0.587865 0)
(1.09104 -0.000208612 0)
(1.09106 -0.000351237 0)
(1.09113 -0.000646661 0)
(1.09125 -0.0011084 0)
(1.09145 -0.00176013 0)
(1.09176 -0.00264062 0)
(1.09226 -0.00382224 0)
(1.09291 -0.00539139 0)
(1.09394 -0.00749409 0)
(1.09516 -0.0102996 0)
(1.09707 -0.014051 0)
(1.09926 -0.0192603 0)
(1.10215 -0.0258169 0)
(1.10653 -0.0365894 0)
(1.10833 -0.0462367 0)
(1.11868 -0.0743263 0)
(1.10846 -0.0754027 0)
(1.136 -0.172666 0)
(1.0683 -0.0708445 0)
(1.18198 -0.483137 0)
(1.14593 -0.000232311 0)
(1.14593 -0.000383345 1.20181e-36)
(1.14595 -0.000698597 -1.20181e-36)
(1.14596 -0.0011969 0)
(1.146 -0.00190552 0)
(1.14603 -0.00286755 0)
(1.14613 -0.00415692 0)
(1.1462 -0.00586858 0)
(1.14643 -0.00814587 0)
(1.14649 -0.0111718 0)
(1.1469 -0.0151664 0)
(1.14679 -0.0206386 0)
(1.14704 -0.0274263 0)
(1.14668 -0.0381245 0)
(1.14442 -0.0477944 0)
(1.14455 -0.0727553 0)
(1.12979 -0.0750877 0)
(1.13784 -0.150242 0)
(1.0704 -0.0695046 0)
(1.1543 -0.376967 0)
(1.16464 -0.000231611 0)
(1.16464 -0.000376724 9.43969e-36)
(1.1646 -0.000680176 -9.43969e-36)
(1.16453 -0.00116242 0)
(1.16442 -0.00185092 0)
(1.16423 -0.00278836 0)
(1.16399 -0.00404279 0)
(1.16356 -0.00570614 0)
(1.16311 -0.00790432 0)
(1.1622 -0.0108101 0)
(1.16135 -0.0146 0)
(1.15944 -0.0197163 0)
(1.15753 -0.0259751 0)
(1.15385 -0.0354369 0)
(1.14842 -0.0440408 0)
(1.14279 -0.0640957 0)
(1.12495 -0.0664604 0)
(1.12435 -0.121662 0)
(1.06101 -0.0582724 0)
(1.12912 -0.284201 0)
(1.16968 -0.000209524 0)
(1.16966 -0.000336376 1.15979e-36)
(1.16959 -0.000601576 -1.15979e-36)
(1.16945 -0.00102401 0)
(1.16922 -0.00162828 0)
(1.16884 -0.00245217 0)
(1.16832 -0.00355284 0)
(1.1675 -0.00500961 0)
(1.1665 -0.00692389 0)
(1.16482 -0.00943988 0)
(1.16297 -0.0126883 0)
(1.15972 -0.0170101 0)
(1.15619 -0.0222365 0)
(1.15033 -0.0298511 0)
(1.14272 -0.0367913 0)
(1.13395 -0.0517587 0)
(1.11466 -0.053565 0)
(1.11022 -0.0926022 0)
(1.05197 -0.0444266 0)
(1.11067 -0.207245 0)
(1.17043 -0.000170293 0)
(1.17041 -0.000268635 0)
(1.17031 -0.000474079 0)
(1.17011 -0.00080167 0)
(1.16978 -0.00127069 0)
(1.16926 -0.00191044 0)
(1.16853 -0.00276386 0)
(1.1674 -0.00389112 0)
(1.16597 -0.00536599 0)
(1.16373 -0.00729427 0)
(1.16114 -0.00976472 0)
(1.15694 -0.013011 0)
(1.15227 -0.0169021 0)
(1.145 -0.0224099 0)
(1.13602 -0.0274276 0)
(1.12554 -0.0376797 0)
(1.10574 -0.0388499 0)
(1.09951 -0.0648152 0)
(1.04557 -0.0308913 0)
(1.09851 -0.141467 0)
(1.17018 -0.000118496 0)
(1.17015 -0.000180513 0)
(1.17003 -0.000309992 0)
(1.16979 -0.000516671 0)
(1.1694 -0.000812808 0)
(1.16878 -0.00121678 0)
(1.1679 -0.00175504 0)
(1.16656 -0.00246496 0)
(1.16485 -0.0033913 0)
(1.16223 -0.00459811 0)
(1.15914 -0.0061366 0)
(1.15433 -0.00814098 0)
(1.14894 -0.0105288 0)
(1.14083 -0.0138445 0)
(1.13106 -0.0168601 0)
(1.11967 -0.0228213 0)
(1.09976 -0.0234538 0)
(1.09271 -0.03833 0)
(1.0417 -0.0181455 0)
(1.09128 -0.0824954 0)
(1.16993 -5.89137e-05 0)
(1.16989 -7.96623e-05 4.50033e-36)
(1.16976 -0.000123 -4.50033e-36)
(1.1695 -0.000192564 0)
(1.16908 -0.00029258 0)
(1.16841 -0.000429097 0)
(1.16745 -0.00061088 0)
(1.166 -0.000850665 0)
(1.16414 -0.00116377 0)
(1.16133 -0.00157203 0)
(1.158 -0.00209222 0)
(1.15289 -0.00276831 0)
(1.14715 -0.00357132 0)
(1.13865 -0.00467726 0)
(1.12852 -0.00568092 0)
(1.11673 -0.00763621 0)
(1.09684 -0.00783348 0)
(1.08946 -0.0126815 0)
(1.0399 -0.00597987 0)
(1.08791 -0.0271229 0)
(1.16993 3.44146e-06 0)
(1.16989 2.57657e-05 0)
(1.16976 7.21316e-05 0)
(1.1695 0.000145202 0)
(1.16908 0.000249145 0)
(1.16841 0.000390719 0)
(1.16745 0.000579269 0)
(1.16601 0.00082717 0)
(1.16414 0.00114868 0)
(1.16133 0.00156406 0)
(1.158 0.00208986 0)
(1.15289 0.00276866 0)
(1.14715 0.00357448 0)
(1.13865 0.00467935 0)
(1.12852 0.00568516 0)
(1.11673 0.00763843 0)
(1.09684 0.0078361 0)
(1.08946 0.0126844 0)
(1.0399 0.00598163 0)
(1.08791 0.0271261 0)
(1.17019 6.35045e-05 0)
(1.17016 0.000127398 0)
(1.17004 0.000260166 0)
(1.1698 0.0004704 0)
(1.16941 0.000770378 0)
(1.16879 0.00117928 0)
(1.1679 0.00172418 0)
(1.16656 0.00244204 0)
(1.16485 0.00337659 0)
(1.16223 0.00459036 0)
(1.15914 0.00613433 0)
(1.15433 0.00814138 0)
(1.14894 0.0105319 0)
(1.14083 0.0138465 0)
(1.13106 0.0168642 0)
(1.11967 0.0228235 0)
(1.09976 0.0234564 0)
(1.09271 0.0383328 0)
(1.0417 0.0181472 0)
(1.09128 0.0824985 0)
(1.17045 0.000116872 0)
(1.17042 0.000217485 0)
(1.17032 0.000426538 0)
(1.17012 0.000757688 0)
(1.16979 0.00123036 0)
(1.16927 0.00187482 0)
(1.16854 0.00273458 0)
(1.1674 0.00386945 0)
(1.16598 0.00535217 0)
(1.16373 0.0072871 0)
(1.16114 0.00976277 0)
(1.15694 0.0130116 0)
(1.15227 0.0169052 0)
(1.145 0.0224118 0)
(1.13602 0.0274316 0)
(1.12554 0.037682 0)
(1.10574 0.0388524 0)
(1.09951 0.064818 0)
(1.04557 0.0308929 0)
(1.09851 0.14147 0)
(1.16971 0.000160034 0)
(1.16969 0.000289332 0)
(1.16962 0.000558145 0)
(1.16947 0.000983892 0)
(1.16923 0.00159145 0)
(1.16885 0.00241964 0)
(1.16833 0.0035262 0)
(1.1675 0.00499005 0)
(1.1665 0.00691161 0)
(1.16482 0.00943374 0)
(1.16297 0.0126869 0)
(1.15972 0.017011 0)
(1.15619 0.0222397 0)
(1.15033 0.0298533 0)
(1.14272 0.0367953 0)
(1.13396 0.051761 0)
(1.11466 0.0535674 0)
(1.11022 0.0926048 0)
(1.05197 0.0444282 0)
(1.11068 0.207247 0)
(1.16468 0.000189606 0)
(1.16467 0.000336708 -9.44615e-36)
(1.16464 0.000642995 9.44615e-36)
(1.16456 0.0011278 0)
(1.16444 0.00181899 0)
(1.16425 0.00276016 0)
(1.164 0.00401984 0)
(1.16357 0.00568952 0)
(1.16312 0.00789418 0)
(1.1622 0.0108054 0)
(1.16135 0.0145995 0)
(1.15944 0.0197176 0)
(1.15753 0.0259783 0)
(1.15385 0.0354392 0)
(1.14842 0.0440447 0)
(1.14279 0.064098 0)
(1.12495 0.0664628 0)
(1.12435 0.121665 0)
(1.06101 0.0582739 0)
(1.12912 0.284203 0)
(1.14597 0.00020152 0)
(1.14597 0.000353222 0)
(1.14598 0.000669482 0)
(1.14599 0.00116899 0)
(1.14602 0.00187941 0)
(1.14605 0.00284445 0)
(1.14614 0.00413829 0)
(1.14621 0.00585538 0)
(1.14644 0.0081382 0)
(1.14649 0.0111687 0)
(1.1469 0.0151667 0)
(1.14679 0.0206404 0)
(1.14704 0.0274296 0)
(1.14668 0.038127 0)
(1.14442 0.047798 0)
(1.14455 0.0727575 0)
(1.12978 0.07509 0)
(1.13784 0.150245 0)
(1.0704 0.069506 0)
(1.1543 0.37697 0)
(1.09108 0.00019117 0)
(1.0911 0.000332547 0)
(1.09116 0.000626431 0)
(1.09127 0.00108757 0)
(1.09147 0.00174001 0)
(1.09177 0.00262272 0)
(1.09226 0.00380798 0)
(1.09291 0.00538163 0)
(1.09394 0.00748886 0)
(1.09516 0.0102981 0)
(1.09707 0.014052 0)
(1.09926 0.0192622 0)
(1.10215 0.02582 0)
(1.10652 0.0365918 0)
(1.10833 0.04624 0)
(1.11868 0.0743282 0)
(1.10846 0.0754047 0)
(1.136 0.172668 0)
(1.0683 0.0708457 0)
(1.18199 0.483139 0)
(0.957894 0.000155701 0)
(0.957939 0.000270548 0)
(0.95806 0.000505562 0)
(0.958285 0.000868493 0)
(0.958666 0.00137674 0)
(0.959257 0.00206065 0)
(0.960158 0.00297975 0)
(0.961418 0.00420011 0)
(0.96326 0.00584479 0)
(0.965689 0.00804553 0)
(0.969149 0.0110225 0)
(0.97377 0.015206 0)
(0.979542 0.0205479 0)
(0.98934 0.0296318 0)
(0.995829 0.0377118 0)
(1.02093 0.0640743 0)
(1.01523 0.0627089 0)
(1.08185 0.173755 0)
(1.01656 0.054257 0)
(1.18332 0.587867 0)
(0.69246 9.77029e-05 0)
(0.69253 0.000168867 0)
(0.692702 0.000308403 0)
(0.693011 0.000516953 0)
(0.69352 0.000804239 0)
(0.6943 0.00118874 0)
(0.695459 0.00170536 0)
(0.697098 0.00239128 0)
(0.699426 0.00332064 0)
(0.702596 0.00457044 0)
(0.707011 0.00628489 0)
(0.713081 0.00872154 0)
(0.720982 0.0119041 0)
(0.733759 0.0174095 0)
(0.745217 0.0224383 0)
(0.780204 0.0397133 0)
(0.780998 0.0354262 0)
(0.902826 0.130566 0)
(0.834476 -0.0356299 0)
(1.1247 0.653917 0)
(0.267594 3.38833e-05 0)
(0.267664 5.81028e-05 0)
(0.267805 0.000101006 0)
(0.268042 0.000161824 0)
(0.268422 0.000244411 0)
(0.268995 0.000354718 0)
(0.269829 0.000502497 0)
(0.271006 0.000698828 0)
(0.272654 0.00096684 0)
(0.274918 0.00133189 0)
(0.278054 0.00184308 0)
(0.28239 0.00258105 0)
(0.288304 0.00358768 0)
(0.297107 0.00530804 0)
(0.307707 0.00711922 0)
(0.329155 0.0121236 0)
(0.340244 0.0124077 0)
(0.407812 0.0339029 0)
(0.448778 -0.00556266 0)
(0.30379 0.507635 0)
)
;

boundaryField
{
    movingWall
    {
        type            fixedValue;
        value           nonuniform 0();
    }
    fixedWalls
    {
        type            noSlip;
    }
    frontAndBack
    {
        type            empty;
    }
    right
    {
        type            zeroGradient;
    }
    left
    {
        type            fixedValue;
        value           uniform (1 0 0);
    }
}


// ************************************************************************* //
